 vasp.5.4.4.18Apr17-6-g9f103f2a35 (build Apr 16 2021 11:04:18) complex           
 executed on   HPECrayEX-GNU-AOCL date 2021.04.16  11:18:45
 running on 1024 total cores
 distrk:  each k-point on  512 cores,    2 groups
 distr:  one band on NCORES_PER_BAND=   4 cores,  128 groups


--------------------------------------------------------------------------------------------------------


 INCAR:
 POTCAR:    PAW_PBE Cd 06Sep2000                  
 POTCAR:    PAW_PBE Te 08Apr2002                  

 ----------------------------------------------------------------------------- 
|                                                                             |
|           W    W    AA    RRRRR   N    N  II  N    N   GGGG   !!!           |
|           W    W   A  A   R    R  NN   N  II  NN   N  G    G  !!!           |
|           W    W  A    A  R    R  N N  N  II  N N  N  G       !!!           |
|           W WW W  AAAAAA  RRRRR   N  N N  II  N  N N  G  GGG   !            |
|           WW  WW  A    A  R   R   N   NN  II  N   NN  G    G                |
|           W    W  A    A  R    R  N    N  II  N    N   GGGG   !!!           |
|                                                                             |
|      For optimal performance we recommend to set                            |
|        NCORE= 4 - approx SQRT( number of cores)                             |
|      NCORE specifies how many cores store one orbital (NPAR=cpu/NCORE).     |
|      This setting can  greatly improve the performance of VASP for DFT.     |
|      The default,   NCORE=1            might be grossly inefficient         |
|      on modern multi-core architectures or massively parallel machines.     |
|      Do your own testing !!!!                                               |
|      Unfortunately you need to use the default for GW and RPA calculations. |
|      (for HF NCORE is supported but not extensively tested yet)             |
|                                                                             |
 ----------------------------------------------------------------------------- 


 ----------------------------------------------------------------------------- 
|                                                                             |
|           W    W    AA    RRRRR   N    N  II  N    N   GGGG   !!!           |
|           W    W   A  A   R    R  NN   N  II  NN   N  G    G  !!!           |
|           W    W  A    A  R    R  N N  N  II  N N  N  G       !!!           |
|           W WW W  AAAAAA  RRRRR   N  N N  II  N  N N  G  GGG   !            |
|           WW  WW  A    A  R   R   N   NN  II  N   NN  G    G                |
|           W    W  A    A  R    R  N    N  II  N    N   GGGG   !!!           |
|                                                                             |
|      You have enabled k-point parallelism (KPAR>1).                         |
|      This developmental code was originally  written by Paul Kent at ORNL,  |
|      and carefully double checked in Vienna.                                |
|      GW as well as linear response parallelism added by Martijn Marsman     |
|      and Georg Kresse.                                                      |
|      Carefully verify results versus KPAR=1.                                |
|      Report problems to Paul Kent and Vienna.                               |
|                                                                             |
 ----------------------------------------------------------------------------- 

 POTCAR:    PAW_PBE Cd 06Sep2000                  
   VRHFIN =Cd : s2 d10                                                          
   LEXCH  = PE                                                                  
   EATOM  =  1293.1815 eV,   95.0462 Ry                                         
                                                                                
   TITEL  = PAW_PBE Cd 06Sep2000                                                
   LULTRA =        F    use ultrasoft PP ?                                      
   IUNSCR =        1    unscreen: 0-lin 1-nonlin 2-no                           
   RPACOR =    2.000    partial core radius                                     
   POMASS =  112.411; ZVAL   =   12.000    mass and valenz                      
   RCORE  =    2.300    outmost cutoff radius                                   
   RWIGS  =    2.980; RWIGS  =    1.577    wigner-seitz radius (au A)           
   ENMAX  =  274.336; ENMIN  =  205.752 eV                                      
   RCLOC  =    2.054    cutoff for local pot                                    
   LCOR   =        T    correct aug charges                                     
   LPAW   =        T    paw PP                                                  
   EAUG   =  456.106                                                            
   DEXC   =    0.000                                                            
   RMAX   =    2.358    core radius for proj-oper                               
   RAUG   =    1.300    factor for augmentation sphere                          
   RDEP   =    2.450    radius for radial grids                                 
   RDEPT  =    1.955    core radius for aug-charge                              
                                                                                
   Atomic configuration                                                         
   12 entries                                                                   
     n  l   j            E        occ.                                          
     1  0  0.50    -26519.7817   2.0000                                         
     2  0  0.50     -3936.9612   2.0000                                         
     2  1  1.50     -3532.2230   6.0000                                         
     3  0  0.50      -733.7908   2.0000                                         
     3  1  1.50      -601.0792   6.0000                                         
     3  2  2.50      -393.5307  10.0000                                         
     4  0  0.50      -105.8977   2.0000                                         
     4  1  1.50       -66.9488   6.0000                                         
     4  2  2.50       -11.7331  10.0000                                         
     5  0  0.50        -5.6592   2.0000                                         
     5  1  0.50        -1.3606   0.0000                                         
     4  3  2.50        -1.3606   0.0000                                         
   Description                                                                  
     l       E           TYP  RCUT    TYP  RCUT                                 
     2    -11.7331479     23  2.300                                             
     2    -13.0937305     23  2.300                                             
     0     -5.6591502     23  2.300                                             
     0     -1.5561433     23  2.300                                             
     1     -2.7211652     23  2.300                                             
     1      8.3548275     23  2.300                                             
  local pseudopotential read in
  partial core-charges read in
  partial kinetic energy density read in
  atomic valenz-charges read in
  non local Contribution for L=           2  read in
    real space projection operators read in
  non local Contribution for L=           2  read in
    real space projection operators read in
  non local Contribution for L=           0  read in
    real space projection operators read in
  non local Contribution for L=           0  read in
    real space projection operators read in
  non local Contribution for L=           1  read in
    real space projection operators read in
  non local Contribution for L=           1  read in
    real space projection operators read in
    PAW grid and wavefunctions read in

   number of l-projection  operators is LMAX  =           6
   number of lm-projection operators is LMMAX =          18

 POTCAR:    PAW_PBE Te 08Apr2002                  
   VRHFIN =Te: s2p4                                                             
   LEXCH  = PE                                                                  
   EATOM  =   223.2721 eV,   16.4100 Ry                                         
                                                                                
   TITEL  = PAW_PBE Te 08Apr2002                                                
   LULTRA =        F    use ultrasoft PP ?                                      
   IUNSCR =        1    unscreen: 0-lin 1-nonlin 2-no                           
   RPACOR =    2.200    partial core radius                                     
   POMASS =  127.600; ZVAL   =    6.000    mass and valenz                      
   RCORE  =    2.300    outmost cutoff radius                                   
   RWIGS  =    2.900; RWIGS  =    1.535    wigner-seitz radius (au A)           
   ENMAX  =  174.982; ENMIN  =  131.236 eV                                      
   ICORE  =        3    local potential                                         
   LCOR   =        T    correct aug charges                                     
   LPAW   =        T    paw PP                                                  
   EAUG   =  368.792                                                            
   DEXC   =    0.000                                                            
   RMAX   =    2.345    core radius for proj-oper                               
   RAUG   =    1.300    factor for augmentation sphere                          
   RDEP   =    2.397    radius for radial grids                                 
   RDEPT  =    2.174    core radius for aug-charge                              
                                                                                
   Atomic configuration                                                         
   13 entries                                                                   
     n  l   j            E        occ.                                          
     1  0  0.50    -31621.2075   2.0000                                         
     2  0  0.50     -4848.7941   2.0000                                         
     2  1  1.50     -4352.1960   6.0000                                         
     3  0  0.50      -964.9612   2.0000                                         
     3  1  1.50      -803.6179   6.0000                                         
     3  2  2.50      -559.8710  10.0000                                         
     4  0  0.50      -164.3522   2.0000                                         
     4  1  1.50      -114.3756   6.0000                                         
     4  2  2.50       -41.6483  10.0000                                         
     5  0  0.50       -15.1072   2.0000                                         
     5  1  0.50        -5.9526   4.0000                                         
     5  2  1.50        -5.4423   0.0000                                         
     4  3  2.50        -5.4423   0.0000                                         
   Description                                                                  
     l       E           TYP  RCUT    TYP  RCUT                                 
     0    -15.1072389     23  2.300                                             
     0    -16.4678215     23  2.300                                             
     1     -5.9526306     23  2.300                                             
     1     -2.4873968     23  2.300                                             
     2     -5.4423304     23  2.300                                             
     3     -1.3605826     23  2.300                                             
  local pseudopotential read in
  partial core-charges read in
  partial kinetic energy density read in
  atomic valenz-charges read in
  non local Contribution for L=           0  read in
    real space projection operators read in
  non local Contribution for L=           0  read in
    real space projection operators read in
  non local Contribution for L=           1  read in
    real space projection operators read in
  non local Contribution for L=           1  read in
    real space projection operators read in
  non local Contribution for L=           2  read in
    real space projection operators read in
    PAW grid and wavefunctions read in

   number of l-projection  operators is LMAX  =           5
   number of lm-projection operators is LMMAX =          13


 ----------------------------------------------------------------------------- 
|                                                                             |
|  ADVICE TO THIS USER RUNNING 'VASP/VAMP'   (HEAR YOUR MASTER'S VOICE ...):  |
|                                                                             |
|      You have a (more or less) 'large supercell' and for larger cells       |
|      it might be more efficient to use real space projection opertators     |
|      So try LREAL= Auto  in the INCAR   file.                               |
|      Mind:          For very  accurate calculation you might also keep the  |
|      reciprocal projection scheme          (i.e. LREAL=.FALSE.)             |
|                                                                             |
 ----------------------------------------------------------------------------- 

  PAW_PBE Cd 06Sep2000                  :
 energy of atom  1       EATOM=-1293.1815
 kinetic energy error for atom=    0.0084 (will be added to EATOM!!)
  PAW_PBE Te 08Apr2002                  :
 energy of atom  2       EATOM= -223.2721
 kinetic energy error for atom=    0.0008 (will be added to EATOM!!)


 POSCAR: Cd33 Te32                               
  positions in direct lattice
  No initial velocities read in
 exchange correlation table for  LEXCH =        8
   RHO(1)=    0.500       N(1)  =     2000
   RHO(2)=  100.500       N(2)  =     4000



--------------------------------------------------------------------------------------------------------


 ion  position               nearest neighbor table
   1  0.004  0.996  0.004-  44 2.79  35 2.93  54 2.93  65 2.93  33 2.94
   2  0.001  0.999  0.497-  55 2.82  34 2.82  64 2.82  45 2.84
   3  0.001  0.503  0.001-  63 2.82  56 2.82  37 2.82  42 2.84
   4  1.000  0.501  0.499-  57 2.82  62 2.82  36 2.82  43 2.84
   5  0.497  0.999  0.001-  39 2.82  50 2.82  61 2.82  48 2.84
   6  0.499  0.000  0.499-  38 2.82  51 2.82  60 2.82  49 2.84
   7  0.499  0.501  1.000-  41 2.82  59 2.82  52 2.82  46 2.84
   8  0.501  0.499  0.501-  47 2.82  40 2.83  53 2.83  58 2.83
   9  0.001  0.251  0.253-  54 2.82  34 2.82  62 2.82  42 2.84
  10  0.004  0.254  0.746-  43 2.79  35 2.93  55 2.93  63 2.93  33 2.94
  11  1.000  0.749  0.251-  56 2.82  64 2.82  36 2.82  44 2.84
  12  0.001  0.747  0.749-  65 2.82  57 2.82  37 2.82  45 2.84
  13  0.499  0.250  0.251-  38 2.82  50 2.82  58 2.82  46 2.84
  14  0.497  0.251  0.749-  39 2.82  51 2.82  59 2.82  47 2.84
  15  0.501  0.751  0.249-  48 2.82  40 2.83  52 2.83  60 2.83
  16  0.499  0.749  0.750-  41 2.82  61 2.82  53 2.82  49 2.84
  17  0.251  0.000  0.251-  34 2.82  50 2.82  60 2.82  44 2.84
  18  0.253  0.999  0.749-  35 2.82  51 2.82  61 2.82  45 2.84
  19  0.249  0.499  0.249-  42 2.82  36 2.83  52 2.83  58 2.83
  20  0.251  0.501  0.750-  37 2.82  59 2.82  53 2.82  43 2.84
  21  0.749  0.999  0.253-  54 2.82  38 2.82  64 2.82  48 2.84
  22  0.746  0.996  0.746-  49 2.79  39 2.93  55 2.93  65 2.93  33 2.94
  23  0.750  0.501  0.251-  56 2.82  62 2.82  40 2.82  46 2.84
  24  0.749  0.503  0.749-  63 2.82  57 2.82  41 2.82  47 2.84
  25  0.253  0.251  0.001-  35 2.82  50 2.82  59 2.82  42 2.84
  26  0.251  0.250  0.499-  34 2.82  51 2.82  58 2.82  43 2.84
  27  0.251  0.749  1.000-  37 2.82  61 2.82  52 2.82  44 2.84
  28  0.249  0.751  0.501-  45 2.82  36 2.83  53 2.83  60 2.83
  29  0.746  0.254  0.004-  46 2.79  39 2.93  54 2.93  63 2.93  33 2.94
  30  0.749  0.251  0.497-  55 2.82  38 2.82  62 2.82  47 2.84
  31  0.749  0.747  0.001-  65 2.82  56 2.82  41 2.82  48 2.84
  32  0.750  0.749  0.499-  57 2.82  64 2.82  40 2.82  49 2.84
  33  0.875  0.125  0.875-   1 2.94  10 2.94  22 2.94  29 2.94  35 3.37  39 3.37  54 3.37  55 3.37
                            63 3.37  65 3.37
  34  0.127  0.125  0.375-  17 2.82  26 2.82   2 2.82   9 2.82
  35  0.133  0.125  0.875-  18 2.82  25 2.82  10 2.93   1 2.93  33 3.37
  36  0.126  0.625  0.375-   4 2.82  11 2.82  19 2.83  28 2.83
  37  0.127  0.625  0.875-  20 2.82  27 2.82   3 2.82  12 2.82
  38  0.623  0.125  0.375-  13 2.82   6 2.82  21 2.82  30 2.82
  39  0.617  0.125  0.875-  14 2.82   5 2.82  22 2.93  29 2.93  33 3.37
  40  0.624  0.625  0.375-  23 2.82  32 2.82   8 2.83  15 2.83
  41  0.623  0.625  0.875-   7 2.82  16 2.82  31 2.82  24 2.82
  42  0.125  0.375  0.125-  19 2.82   9 2.84  25 2.84   3 2.84
  43  0.127  0.377  0.623-  10 2.79   4 2.84  26 2.84  20 2.84
  44  0.127  0.873  0.127-   1 2.79  11 2.84  17 2.84  27 2.84
  45  0.125  0.875  0.625-  28 2.82  18 2.84   2 2.84  12 2.84
  46  0.623  0.377  0.127-  29 2.79  13 2.84  23 2.84   7 2.84
  47  0.625  0.375  0.625-   8 2.82  14 2.84  24 2.84  30 2.84
  48  0.625  0.875  0.125-  15 2.82  21 2.84   5 2.84  31 2.84
  49  0.623  0.873  0.623-  22 2.79  32 2.84   6 2.84  16 2.84
  50  0.375  0.125  0.127-  17 2.82  13 2.82   5 2.82  25 2.82
  51  0.375  0.125  0.623-   6 2.82  26 2.82  18 2.82  14 2.82
  52  0.375  0.625  0.126-   7 2.82  27 2.82  19 2.83  15 2.83
  53  0.375  0.625  0.624-  16 2.82  20 2.82   8 2.83  28 2.83
  54  0.875  0.125  0.133-   9 2.82  21 2.82   1 2.93  29 2.93  33 3.37
  55  0.875  0.125  0.617-  30 2.82   2 2.82  22 2.93  10 2.93  33 3.37
  56  0.875  0.625  0.127-  11 2.82  23 2.82   3 2.82  31 2.82
  57  0.875  0.625  0.623-   4 2.82  32 2.82  12 2.82  24 2.82
  58  0.375  0.376  0.375-  26 2.82  13 2.82  19 2.83   8 2.83
  59  0.375  0.377  0.875-   7 2.82  20 2.82  14 2.82  25 2.82
  60  0.375  0.874  0.375-   6 2.82  17 2.82  15 2.83  28 2.83
  61  0.375  0.873  0.875-  16 2.82  27 2.82   5 2.82  18 2.82
  62  0.875  0.377  0.375-   4 2.82  23 2.82   9 2.82  30 2.82
  63  0.875  0.383  0.875-  24 2.82   3 2.82  10 2.93  29 2.93  33 3.37
  64  0.875  0.873  0.375-  11 2.82  32 2.82   2 2.82  21 2.82
  65  0.875  0.867  0.875-  12 2.82  31 2.82   1 2.93  22 2.93  33 3.37


IMPORTANT INFORMATION: All symmetrisations will be switched off!
NOSYMM: (Re-)initialisation of all symmetry stuff for point group C_1.



 KPOINTS: Automatically generated mesh            
  k-points in reciprocal lattice
Space group operators:
 irot       det(A)        alpha          n_x          n_y          n_z        tau_x        tau_y        tau_z
    1     1.000000     0.000000     1.000000     0.000000     0.000000     0.000000     0.000000     0.000000

 ----------------------------------------------------------------------------- 
|                                                                             |
|           W    W    AA    RRRRR   N    N  II  N    N   GGGG   !!!           |
|           W    W   A  A   R    R  NN   N  II  NN   N  G    G  !!!           |
|           W    W  A    A  R    R  N N  N  II  N N  N  G       !!!           |
|           W WW W  AAAAAA  RRRRR   N  N N  II  N  N N  G  GGG   !            |
|           WW  WW  A    A  R   R   N   NN  II  N   NN  G    G                |
|           W    W  A    A  R    R  N    N  II  N    N   GGGG   !!!           |
|                                                                             |
|      Your generating k-point grid is not commensurate to the symmetry       |
|      of the lattice.  This can cause   slow convergence with respect        |
|      to k-points for HF type calculations                                   |
|      suggested SOLUTIONS:                                                   |
|       ) if not already the case, use automatic k-point generation           |
|       ) shift your grid to Gamma (G) (e.g. required for hex or fcc lattice) |
|                                                                             |
 ----------------------------------------------------------------------------- 

 
 Subroutine IBZKPT_HF returns following result:
 ==============================================
 
 Found      8 k-points in 1st BZ
 the following      8 k-points will be used (e.g. in the exchange kernel)
 Following reciprocal coordinates:   # in IRBZ
  0.000000  0.000000  0.000000    0.12500000   1 t-inv F
  0.500000  0.000000  0.000000    0.12500000   2 t-inv F
  0.000000  0.500000  0.000000    0.12500000   3 t-inv F
  0.500000  0.500000  0.000000    0.12500000   4 t-inv F
  0.000000  0.000000  0.500000    0.12500000   5 t-inv F
  0.500000  0.000000  0.500000    0.12500000   6 t-inv F
  0.000000  0.500000  0.500000    0.12500000   7 t-inv F
  0.500000  0.500000  0.500000    0.12500000   8 t-inv F


--------------------------------------------------------------------------------------------------------




 Dimension of arrays:
   k-points           NKPTS =      8   k-points in BZ     NKDIM =      8   number of bands    NBANDS=    896
   number of dos      NEDOS =   2000   number of ions     NIONS =     65
   non local maximal  LDIM  =      6   non local SUM 2l+1 LMDIM =     18
   total plane-waves  NPLWV = 884736
   max r-space proj   IRMAX =      1   max aug-charges    IRDMAX= 183854
   dimension x,y,z NGX =    96 NGY =   96 NGZ =   96
   dimension x,y,z NGXF=   192 NGYF=  192 NGZF=  192
   support grid    NGXF=   384 NGYF=  384 NGZF=  384
   ions per type =              33  32
   NGX,Y,Z   is equivalent  to a cutoff of  12.20, 12.20, 12.20 a.u.
   NGXF,Y,Z  is equivalent  to a cutoff of  24.39, 24.39, 24.39 a.u.

 SYSTEM =  unknown system                          
 POSCAR =  Cd33 Te32                               

 Startparameter for this run:
   NWRITE =      2    write-flag & timer
   PREC   = accura    normal or accurate (medium, high low for compatibility)
   ISTART =      0    job   : 0-new  1-cont  2-samecut
   ICHARG =      1    charge: 1-file 2-atom 10-const
   ISPIN  =      1    spin polarized calculation?
   LNONCOLLINEAR =      T non collinear calculations
   LSORBIT =      T    spin-orbit coupling
   INIWAV =      1    electr: 0-lowe 1-rand  2-diag
   LASPH  =      T    aspherical Exc in radial PAW
   METAGGA=      F    non-selfconsistent MetaGGA calc.

 Electronic Relaxation 1
   ENCUT  =  450.0 eV  33.07 Ry    5.75 a.u.  22.64 22.64 22.64*2*pi/ulx,y,z
   ENINI  =  450.0     initial cutoff
   ENAUG  =  456.1 eV  augmentation charge cutoff
   NELM   =     10;   NELMIN=  2; NELMDL= -5     # of ELM steps 
   EDIFF  = 0.1E-05   stopping-criterion for ELM
   LREAL  =      F    real-space projection
   NLSPLINE    = F    spline interpolate recip. space projectors
   LCOMPAT=      F    compatible to vasp.4.4
   GGA_COMPAT  = T    GGA compatible to vasp.4.4-vasp.4.6
   LMAXPAW     = -100 max onsite density
   LMAXMIX     =    2 max onsite mixed and CHGCAR
   VOSKOWN=      0    Vosko Wilk Nusair interpolation
   ROPT   =    0.00000   0.00000
 Ionic relaxation
   EDIFFG = -.1E-01   stopping-criterion for IOM
   NSW    =      0    number of steps for IOM
   NBLOCK =      1;   KBLOCK =      1    inner block; outer block 
   IBRION =     -1    ionic relax: 0-MD 1-quasi-New 2-CG
   NFREE  =      0    steps in history (QN), initial steepest desc. (CG)
   ISIF   =      2    stress and relaxation
   IWAVPR =     10    prediction:  0-non 1-charg 2-wave 3-comb
   ISYM   =      0    0-nonsym 1-usesym 2-fastsym
   LCORR  =      T    Harris-Foulkes like correction to forces

   POTIM  = 0.5000    time-step for ionic-motion
   TEIN   =    0.0    initial temperature
   TEBEG  =    0.0;   TEEND  =   0.0 temperature during run
   SMASS  =  -3.00    Nose mass-parameter (am)
   estimated Nose-frequenzy (Omega)   =  0.10E-29 period in steps =****** mass=  -0.391E-26a.u.
   SCALEE = 1.0000    scale energy and forces
   NPACO  =    256;   APACO  = 16.0  distance and # of slots for P.C.
   PSTRESS=    0.0 pullay stress

  Mass of Ions in am
   POMASS = 112.41127.60
  Ionic Valenz
   ZVAL   =  12.00  6.00
  Atomic Wigner-Seitz radii
   RWIGS  =  -1.00 -1.00
  virtual crystal weights 
   VCA    =   1.00  1.00
   NELECT =     588.0000    total number of electrons
   NUPDOWN=      -1.0000    fix difference up-down

 DOS related values:
   EMIN   =  10.00;   EMAX   =-10.00  energy-range for DOS
   EFERMI =   0.00
   ISMEAR =     0;   SIGMA  =   0.05  broadening in eV -4-tet -1-fermi 0-gaus

 Electronic relaxation 2 (details)
   IALGO  =     58    algorithm
   LDIAG  =      T    sub-space diagonalisation (order eigenvalues)
   LSUBROT=      F    optimize rotation matrix (better conditioning)
   TURBO    =      0    0=normal 1=particle mesh
   IRESTART =      0    0=no restart 2=restart with 2 vectors
   NREBOOT  =      0    no. of reboots
   NMIN     =      0    reboot dimension
   EREF     =   0.00    reference energy to select bands
   IMIX   =      4    mixing-type and parameters
     AMIX     =   0.40;   BMIX     =  1.00
     AMIX_MAG =   1.60;   BMIX_MAG =  1.00
     AMIN     =   0.10
     WC   =   100.;   INIMIX=   1;  MIXPRE=   1;  MAXMIX= -45

 Intra band minimization:
   WEIMIN = 0.0000     energy-eigenvalue tresh-hold
   EBREAK =  0.28E-09  absolut break condition
   DEPER  =   0.30     relativ break condition  

   TIME   =   0.40     timestep for ELM

  volume/ion in A,a.u.               =      34.48       232.69
  Fermi-wavevector in a.u.,A,eV,Ry     =   1.048017  1.980464 14.943809  1.098339
  Thomas-Fermi vector in A             =   2.182921

 Write flags
   LWAVE        =      T    write WAVECAR
   LDOWNSAMPLE  =      F    k-point downsampling of WAVECAR
   LCHARG       =      T    write CHGCAR
   LVTOT        =      F    write LOCPOT, total local potential
   LVHAR        =      T    write LOCPOT, Hartree potential only
   LELF         =      F    write electronic localiz. function (ELF)
   LORBIT       =     11    0 simple, 1 ext, 2 COOP (PROOUT), +10 PAW based schemes


 Dipole corrections
   LMONO  =      F    monopole corrections only (constant potential shift)
   LDIPOL =      F    correct potential (dipole corrections)
   IDIPOL =      0    1-x, 2-y, 3-z, 4-all directions 
   EPSILON=  1.0000000 bulk dielectric constant

 Exchange correlation treatment:
   GGA     =    --    GGA type
   LEXCH   =     8    internal setting for exchange type
   VOSKOWN=      0    Vosko Wilk Nusair interpolation
   EXXOEP  =     0    0=HF, 1=EXX-LHF (local Hartree Fock) 2=EXX OEP
   LHFCALC =     T    Hartree Fock is set to
   LSYMGRAD=     F    symmetrize gradient (conserves proper symmetry)
   PRECFOCK=fast      Normal, Fast or Accurate (Low or Medium for compatibility)
   LRHFCALC=     F    long range Hartree Fock
   LRSCOR  =     F    long range correlation only (use DFT for short range part)
   LTHOMAS =     F    Thomas Fermi screening in HF
   LMODELHF=     F    short range full HF, long range fraction AEXX
   ENCUT4O =  -1.0   cutoff for four orbital integrals eV
   LMAXFOCK=     4    L truncation for augmentation on plane wave grid
   LMAXFOCKAE=  -1    L truncation for all-electron charge restoration on plane wave grid
   NMAXFOCKAE=   1    number of basis functions for all-electron charge restoration
   LFOCKAEDFT=     F  apply the AE augmentation even for DFT
   NKREDX  =     1    reduce k-point grid by
   NKREDY  =     1    reduce k-point grid by
   NKREDZ  =     1    reduce k-point grid by
   SHIFTRED=     F    shift reduced grid of Gamma
   HFKIDENT=     F    idential grid for each k-point
   ODDONLY =     F    use only odd q-grid points
   EVENONLY=     F    use only even q-grid points
   HFALPHA =   -1.0000 decay constant for conv. correction
   MCALPHA =    0.0000 extent of test-charge in conv. correction in multipole expansion
   AEXX    =    0.2500 exact exchange contribution
   HFSCREEN=    0.2000 screening length (either q_TF or 0.3 A-1)
   HFSCREENC=   0.2000 screening length for correlation (either q_TF or 0.3 A-1)
   HFRCUT  =    0.0000 spherical cutoff for potential kernel
   ALDAX   =    0.7500 LDA exchange part
   AGGAX   =    0.7500 GGA exchange part
   ALDAC   =    1.0000 LDA correlation
   AGGAC   =    1.0000 GGA correlation
   ENCUTFOCK=  -1.0 apply spherical cutoff to Coloumb kernel
   NBANDSGWLOW=     1    first orbital included in HF term
   NBLOCK_FOCK=    64    blocking factor in FOCK_ACC
 Linear response parameters
   LEPSILON=     F    determine dielectric tensor
   LRPA    =     F    only Hartree local field effects (RPA)
   LNABLA  =     F    use nabla operator in PAW spheres
   LVEL    =     F    velocity operator in full k-point grid
   LINTERFAST=   F  fast interpolation
   KINTER  =     0    interpolate to denser k-point grid
   CSHIFT  =0.1000    complex shift for real part using Kramers Kronig
   OMEGAMAX=  -1.0    maximum frequency
   DEG_THRESHOLD= 0.2000000E-02 threshold for treating states as degnerate
   RTIME   =   -0.100 relaxation time in fs
  (WPLASMAI=    0.000 imaginary part of plasma frequency in eV, 0.658/RTIME)
   DFIELD  = 0.0000000 0.0000000 0.0000000 field for delta impulse in time

 Orbital magnetization related:
   ORBITALMAG=     F  switch on orbital magnetization
   LCHIMAG   =     F  perturbation theory with respect to B field
   DQ        =  0.001000  dq finite difference perturbation B field
   LLRAUG    =     F  two centre corrections for induced B field



--------------------------------------------------------------------------------------------------------


 Static calculation
 charge density and potential will be updated during run
 non collinear spin polarized calculation
 Conjugate gradient for all bands (Freysoldt, et al. PRB 79, 241103 (2009))
 preconditioned conjugated gradient                                        
 perform sub-space diagonalisation
    before iterative eigenvector-optimisation
 modified Broyden-mixing scheme, WC =      100.0
 initial mixing is a Kerker type mixing with AMIX =  0.4000 and BMIX =      1.0000
 Hartree-type preconditioning will be used
 using additional bands          602
 reciprocal scheme for non local part
 use partial core corrections
 no Harris-corrections to forces 
 use gradient corrections 
 use of overlap-Matrix (Vanderbilt PP)
 Gauss-broadening in eV      SIGMA  =   0.05


--------------------------------------------------------------------------------------------------------


  energy-cutoff  :      450.00
  volume of cell :     2241.29
      direct lattice vectors                 reciprocal lattice vectors
    13.086768000  0.000000000  0.000000000     0.076413061  0.000000000  0.000000000
     0.000000000 13.086768000  0.000000000     0.000000000  0.076413061  0.000000000
     0.000000000  0.000000000 13.086768000     0.000000000  0.000000000  0.076413061

  length of vectors
    13.086768000 13.086768000 13.086768000     0.076413061  0.076413061  0.076413061



 k-points in units of 2pi/SCALE and weight: Automatically generated mesh            
   0.00000000  0.00000000  0.00000000       0.125
   0.03820653  0.00000000  0.00000000       0.125
   0.00000000  0.03820653  0.00000000       0.125
   0.03820653  0.03820653  0.00000000       0.125
   0.00000000  0.00000000  0.03820653       0.125
   0.03820653  0.00000000  0.03820653       0.125
   0.00000000  0.03820653  0.03820653       0.125
   0.03820653  0.03820653  0.03820653       0.125

 k-points in reciprocal lattice and weights: Automatically generated mesh            
   0.00000000  0.00000000  0.00000000       0.125
   0.50000000  0.00000000  0.00000000       0.125
   0.00000000  0.50000000  0.00000000       0.125
   0.50000000  0.50000000  0.00000000       0.125
   0.00000000  0.00000000  0.50000000       0.125
   0.50000000  0.00000000  0.50000000       0.125
   0.00000000  0.50000000  0.50000000       0.125
   0.50000000  0.50000000  0.50000000       0.125

 position of ions in fractional coordinates (direct lattice) 
   0.00448500  0.99551500  0.00448500
   0.00124700  0.99875300  0.49695900
   0.00124700  0.50304100  0.00124700
   0.99962500  0.50121800  0.49878200
   0.49695900  0.99875300  0.00124700
   0.49878100  0.00037500  0.49878100
   0.49878100  0.50121900  0.99962500
   0.50052800  0.49947200  0.50052800
   0.00124700  0.25124700  0.25304000
   0.00448600  0.25448500  0.74551500
   0.99962500  0.74878200  0.25121800
   0.00124700  0.74695900  0.74875300
   0.49878200  0.24962500  0.25121900
   0.49696000  0.25124700  0.74875300
   0.50052800  0.75052800  0.24947200
   0.49878100  0.74878100  0.75037500
   0.25121900  0.00037500  0.25121900
   0.25304000  0.99875300  0.74875300
   0.24947200  0.49947200  0.24947200
   0.25121900  0.50121900  0.75037500
   0.74875300  0.99875300  0.25304000
   0.74551400  0.99551500  0.74551500
   0.75037500  0.50121900  0.25121900
   0.74875300  0.50304000  0.74875300
   0.25304000  0.25124700  0.00124700
   0.25121900  0.24962500  0.49878100
   0.25121900  0.74878100  0.99962500
   0.24947200  0.75052800  0.50052800
   0.74551400  0.25448500  0.00448500
   0.74875300  0.25124700  0.49696000
   0.74875300  0.74695900  0.00124700
   0.75037500  0.74878200  0.49878200
   0.87500000  0.12500000  0.87500000
   0.12665600  0.12500000  0.37500000
   0.13277900  0.12500000  0.87500000
   0.12589200  0.62500000  0.37500000
   0.12665600  0.62500000  0.87500000
   0.62334400  0.12500000  0.37500000
   0.61722100  0.12500000  0.87500000
   0.62410800  0.62500000  0.37500000
   0.62334400  0.62500000  0.87500000
   0.12484800  0.37484800  0.12484800
   0.12748800  0.37748800  0.62251200
   0.12748800  0.87251200  0.12748800
   0.12484800  0.87515200  0.62515200
   0.62251200  0.37748800  0.12748800
   0.62515200  0.37484800  0.62515200
   0.62515200  0.87515200  0.12484800
   0.62251200  0.87251200  0.62251200
   0.37500000  0.12500000  0.12665600
   0.37500000  0.12500000  0.62334400
   0.37500000  0.62500000  0.12589200
   0.37500000  0.62500000  0.62410800
   0.87500000  0.12500000  0.13277900
   0.87500000  0.12500000  0.61722100
   0.87500000  0.62500000  0.12665600
   0.87500000  0.62500000  0.62334400
   0.37500000  0.37589200  0.37500000
   0.37500000  0.37665600  0.87500000
   0.37500000  0.87410800  0.37500000
   0.37500000  0.87334400  0.87500000
   0.87500000  0.37665600  0.37500000
   0.87500000  0.38277900  0.87500000
   0.87500000  0.87334400  0.37500000
   0.87500000  0.86722100  0.87500000

 position of ions in cartesian coordinates  (Angst):
   0.05869415 13.02807385  0.05869415
   0.01631920 13.07044880  6.50358714
   0.01631920  6.58318086  0.01631920
  13.08186046  6.55932368  6.52744432
   6.50358714 13.07044880  0.01631920
   6.52743123  0.00490754  6.52743123
   6.52743123  6.55933677 13.08186046
   6.55029381  6.53647419  6.55029381
   0.01631920  3.28801120  3.31147577
   0.05870724  3.33038615  9.75638185
  13.08186046  9.79913632  3.28763168
   0.01631920  9.77527914  9.79875680
   6.52744432  3.26678446  3.28764477
   6.50360023  3.28801120  9.79875680
   6.55029381  9.82198581  3.26478219
   6.52743123  9.79912323  9.81998354
   3.28764477  0.00490754  3.28764477
   3.31147577 13.07044880  9.79875680
   3.26478219  6.53647419  3.26478219
   3.28764477  6.55933677  9.81998354
   9.79875680 13.07044880  3.31147577
   9.75636876 13.02807385  9.75638185
   9.81998354  6.55933677  3.28764477
   9.79875680  6.58316777  9.79875680
   3.31147577  3.28801120  0.01631920
   3.28764477  3.26678446  6.52743123
   3.28764477  9.79912323 13.08186046
   3.26478219  9.82198581  6.55029381
   9.75636876  3.33038615  0.05869415
   9.79875680  3.28801120  6.50360023
   9.79875680  9.77527914  0.01631920
   9.81998354  9.79913632  6.52744432
  11.45092200  1.63584600 11.45092200
   1.65751769  1.63584600  4.90753800
   1.73764797  1.63584600 11.45092200
   1.64751940  8.17923000  4.90753800
   1.65751769  8.17923000 11.45092200
   8.15755831  1.63584600  4.90753800
   8.07742803  1.63584600 11.45092200
   8.16755660  8.17923000  4.90753800
   8.15755831  8.17923000 11.45092200
   1.63385681  4.90554881  1.63385681
   1.66840588  4.94009788  8.14667012
   1.66840588 11.41836212  1.66840588
   1.63385681 11.45291119  8.18121919
   8.14667012  4.94009788  1.66840588
   8.18121919  4.90554881  8.18121919
   8.18121919 11.45291119  1.63385681
   8.14667012 11.41836212  8.14667012
   4.90753800  1.63584600  1.65751769
   4.90753800  1.63584600  8.15755831
   4.90753800  8.17923000  1.64751940
   4.90753800  8.17923000  8.16755660
  11.45092200  1.63584600  1.73764797
  11.45092200  1.63584600  8.07742803
  11.45092200  8.17923000  1.65751769
  11.45092200  8.17923000  8.15755831
   4.90753800  4.91921140  4.90753800
   4.90753800  4.92920969 11.45092200
   4.90753800 11.43924860  4.90753800
   4.90753800 11.42925031 11.45092200
  11.45092200  4.92920969  4.90753800
  11.45092200  5.00933997 11.45092200
  11.45092200 11.42925031  4.90753800
  11.45092200 11.34912003 11.45092200

 Euler angles ALPHA=     0.0000000  BETA=     0.0000000

 transformation matrix from SAXIS to cartesian coordinates
 ---------------------------------------------------------
     1.0000000 m_x    -0.0000000 m_y     0.0000000 m_z
     0.0000000 m_x     1.0000000 m_y     0.0000000 m_z
    -0.0000000 m_x     0.0000000 m_y     1.0000000 m_z

 transformation matrix from cartesian coordinates to SAXIS
 ---------------------------------------------------------
     1.0000000 m_x     0.0000000 m_y    -0.0000000 m_z
    -0.0000000 m_x     1.0000000 m_y     0.0000000 m_z
     0.0000000 m_x     0.0000000 m_y     1.0000000 m_z




--------------------------------------------------------------------------------------------------------


 k-point  1 :   0.0000 0.0000 0.0000  plane waves:   97002
 k-point  2 :   0.5000 0.0000 0.0000  plane waves:   97356
 k-point  3 :   0.0000 0.5000 0.0000  plane waves:   97356
 k-point  4 :   0.5000 0.5000 0.0000  plane waves:   96960
 k-point  5 :   0.0000 0.0000 0.5000  plane waves:   97356
 k-point  6 :   0.5000 0.0000 0.5000  plane waves:   96960
 k-point  7 :   0.0000 0.5000 0.5000  plane waves:   96960
 k-point  8 :   0.5000 0.5000 0.5000  plane waves:   96832

 maximum and minimum number of plane-waves per node :     24376    24184

 maximum number of plane-waves:     97356
 maximum index in each direction: 
   IXMAX=   22   IYMAX=   22   IZMAX=   22
   IXMIN=  -23   IYMIN=  -23   IZMIN=  -23


 parallel 3D FFT for wavefunctions:
    minimum data exchange during FFTs selected (reduces bandwidth)
 parallel 3D FFT for charge:
    minimum data exchange during FFTs selected (reduces bandwidth)


 FFT grid for exact exchange (Hartree Fock) 
  NGX = 48; NGY = 48; NGZ = 48


 Radii for the augmentation spheres in the non-local exchange
 for species   1 augmentation radius   1.444 (default was   1.070)
       energy cutoff for augmentation   1800.0
 for species   2 augmentation radius   1.606 (default was   1.190)
       energy cutoff for augmentation   1800.0

 real space projection operators:
  total allocation   :       9375.20 KBytes
  max/ min on nodes  :       2371.68       2281.25

 Maximum index for augmentation-charges in exchange          207
  SETUP_FOCK is finished

 total amount of memory used by VASP MPI-rank0   196139. kBytes
=======================================================================

   base      :      30000. kBytes
   nonl-proj :      41091. kBytes
   fftplans  :      14789. kBytes
   grid      :      37158. kBytes
   one-center:       1057. kBytes
   HF        :        129. kBytes
   nonlr-proj:       3791. kBytes
   wavefun   :      68124. kBytes

     INWAV:  cpu time    0.0001: real time    0.0005
 Broyden mixing: mesh for mixing (old mesh)
   NGX = 45   NGY = 45   NGZ = 45
  (NGX  =192   NGY  =192   NGZ  =192)
  gives a total of  91125 points

 initial charge density was supplied:
 number of electron     588.0000006 magnetization      -0.0000133      0.0000153      0.0000007
 keeping initial charge density in first step


--------------------------------------------------------------------------------------------------------


 Maximum index for augmentation-charges         3093 (set IRDMAX)


--------------------------------------------------------------------------------------------------------


 First call to EWALD:  gamma=   0.135
 Maximum number of real-space cells 3x 3x 3
 Maximum number of reciprocal cells 3x 3x 3

    FEWALD:  cpu time    0.0123: real time    0.0124


--------------------------------------- Iteration      1(   1)  ---------------------------------------


    POTLOK:  cpu time    0.4836: real time    0.4857
    SETDIJ:  cpu time    1.6593: real time    1.6599
    TRIAL :  cpu time   22.8537: real time   23.7730
    CORREC:  cpu time    0.0017: real time    0.0017
    --------------------------------------------
      LOOP:  cpu time   25.0989: real time   26.0618

 eigenvalue-minimisations  : 14336
 total energy-change (2. order) : 0.4403718E+04  (-0.2625046E+05)
 number of electron     588.0000006 magnetization      -0.0000133      0.0000153      0.0000007
 augmentation part      588.0000006 magnetization      -0.0000133      0.0000153      0.0000007

 Free energy of the ion-electron system (eV)
  ---------------------------------------------------
  alpha Z        PSCENC =      1642.45118531
  Ewald energy   TEWEN  =    -33940.17512420
  -Hartree energ DENC   =    -16943.67070273
  -exchange      EXHF   =         0.00000000
  -V(xc)+E(xc)   XCENC  =      -624.98754407
  PAW double counting   =    110389.26129786  -108329.31295278
  entropy T*S    EENTRO =        -0.03182041
  eigenvalues    EBANDS =      2460.75784485
  atomic energy  EATOM  =     49749.42546356
  ---------------------------------------------------
  free energy    TOTEN  =      4403.71764739 eV

  energy without entropy =     4403.74946780  energy(sigma->0) =     4403.73355759
  exchange ACFDT corr.  =         0.00000000  see jH, gK, PRB 81, 115126


--------------------------------------------------------------------------------------------------------




--------------------------------------- Iteration      1(   2)  ---------------------------------------


    TRIAL :  cpu time   24.9850: real time   24.9981
    CORREC:  cpu time    0.0015: real time    0.0015
    --------------------------------------------
      LOOP:  cpu time   24.9987: real time   25.0282

 eigenvalue-minimisations  : 15360
 total energy-change (2. order) :-0.3302823E+04  (-0.3180470E+04)
 number of electron     588.0000006 magnetization      -0.0000133      0.0000153      0.0000007
 augmentation part      588.0000006 magnetization      -0.0000133      0.0000153      0.0000007

 Free energy of the ion-electron system (eV)
  ---------------------------------------------------
  alpha Z        PSCENC =      1642.45118531
  Ewald energy   TEWEN  =    -33940.17512420
  -Hartree energ DENC   =    -16943.67070273
  -exchange      EXHF   =         0.00000000
  -V(xc)+E(xc)   XCENC  =      -624.98754407
  PAW double counting   =    110389.26129786  -108329.31295278
  entropy T*S    EENTRO =        -0.01000333
  eigenvalues    EBANDS =      -842.08674100
  atomic energy  EATOM  =     49749.42546356
  ---------------------------------------------------
  free energy    TOTEN  =      1100.89487862 eV

  energy without entropy =     1100.90488195  energy(sigma->0) =     1100.89988028
  exchange ACFDT corr.  =         0.00000000  see jH, gK, PRB 81, 115126


--------------------------------------------------------------------------------------------------------




--------------------------------------- Iteration      1(   3)  ---------------------------------------


    TRIAL :  cpu time   29.7646: real time   29.7751
    CORREC:  cpu time    0.0012: real time    0.0012
    --------------------------------------------
      LOOP:  cpu time   29.7786: real time   29.8046

 eigenvalue-minimisations  : 17408
 total energy-change (2. order) :-0.1712350E+03  (-0.1697125E+03)
 number of electron     588.0000006 magnetization      -0.0000133      0.0000153      0.0000007
 augmentation part      588.0000006 magnetization      -0.0000133      0.0000153      0.0000007

 Free energy of the ion-electron system (eV)
  ---------------------------------------------------
  alpha Z        PSCENC =      1642.45118531
  Ewald energy   TEWEN  =    -33940.17512420
  -Hartree energ DENC   =    -16943.67070273
  -exchange      EXHF   =         0.00000000
  -V(xc)+E(xc)   XCENC  =      -624.98754407
  PAW double counting   =    110389.26129786  -108329.31295278
  entropy T*S    EENTRO =        -0.01335518
  eigenvalues    EBANDS =     -1013.31842771
  atomic energy  EATOM  =     49749.42546356
  ---------------------------------------------------
  free energy    TOTEN  =       929.65984006 eV

  energy without entropy =      929.67319524  energy(sigma->0) =      929.66651765
  exchange ACFDT corr.  =         0.00000000  see jH, gK, PRB 81, 115126


--------------------------------------------------------------------------------------------------------




--------------------------------------- Iteration      1(   4)  ---------------------------------------


    TRIAL :  cpu time   29.0136: real time   29.0236
    CORREC:  cpu time    0.0012: real time    0.0012
    --------------------------------------------
      LOOP:  cpu time   29.0227: real time   29.0536

 eigenvalue-minimisations  : 17280
 total energy-change (2. order) :-0.3242566E+01  (-0.3240142E+01)
 number of electron     588.0000006 magnetization      -0.0000133      0.0000153      0.0000007
 augmentation part      588.0000006 magnetization      -0.0000133      0.0000153      0.0000007

 Free energy of the ion-electron system (eV)
  ---------------------------------------------------
  alpha Z        PSCENC =      1642.45118531
  Ewald energy   TEWEN  =    -33940.17512420
  -Hartree energ DENC   =    -16943.67070273
  -exchange      EXHF   =         0.00000000
  -V(xc)+E(xc)   XCENC  =      -624.98754407
  PAW double counting   =    110389.26129786  -108329.31295278
  entropy T*S    EENTRO =        -0.01332553
  eigenvalues    EBANDS =     -1016.56102323
  atomic energy  EATOM  =     49749.42546356
  ---------------------------------------------------
  free energy    TOTEN  =       926.41727418 eV

  energy without entropy =      926.43059972  energy(sigma->0) =      926.42393695
  exchange ACFDT corr.  =         0.00000000  see jH, gK, PRB 81, 115126


--------------------------------------------------------------------------------------------------------




--------------------------------------- Iteration      1(   5)  ---------------------------------------


    TRIAL :  cpu time   27.7311: real time   27.7496
    CORREC:  cpu time    0.0021: real time    0.0021
    CHARGE:  cpu time    1.6616: real time    1.6635
    --------------------------------------------
      LOOP:  cpu time   29.4052: real time   29.4442

 eigenvalue-minimisations  : 16384
 total energy-change (2. order) :-0.5419094E-01  (-0.5402910E-01)
 number of electron     588.0000006 magnetization       0.0000056     -0.0000206      0.0000169
 augmentation part      148.6896506 magnetization       0.0000099      0.0000294      0.0000115

 Free energy of the ion-electron system (eV)
  ---------------------------------------------------
  alpha Z        PSCENC =      1642.45118531
  Ewald energy   TEWEN  =    -33940.17512420
  -Hartree energ DENC   =    -16943.67070273
  -exchange      EXHF   =         0.00000000
  -V(xc)+E(xc)   XCENC  =      -624.98754407
  PAW double counting   =    110389.26129786  -108329.31295278
  entropy T*S    EENTRO =        -0.01332330
  eigenvalues    EBANDS =     -1016.61521641
  atomic energy  EATOM  =     49749.42546356
  ---------------------------------------------------
  free energy    TOTEN  =       926.36308325 eV

  energy without entropy =      926.37640654  energy(sigma->0) =      926.36974489
  exchange ACFDT corr.  =         0.00000000  see jH, gK, PRB 81, 115126


--------------------------------------------------------------------------------------------------------




--------------------------------------- Iteration      1(   6)  ---------------------------------------


    POTLOK:  cpu time    0.3898: real time    0.3898
    SETDIJ:  cpu time    1.6278: real time    1.6282
    TRIAL :  cpu time  591.8501: real time  592.2748
    CORREC:  cpu time  587.1124: real time  587.4754
    CHARGE:  cpu time    1.4994: real time    1.4996
    --------------------------------------------
      LOOP:  cpu time 1182.4896: real time 1183.2953

 eigenvalue-minimisations  :     0
 total energy-change (2. order) :-0.1089322E+04  (-0.2636625E+02)
 number of electron     588.0000006 magnetization       0.0000103     -0.0000073      0.0000110
 augmentation part      154.4312263 magnetization       0.0004985      0.0003251      0.0002525

 Free energy of the ion-electron system (eV)
  ---------------------------------------------------
  alpha Z        PSCENC =      1642.45118531
  Ewald energy   TEWEN  =    -33940.17512420
  -Hartree energ DENC   =    -16007.19959823
  -exchange      EXHF   =      1105.38512353
  -V(xc)+E(xc)   XCENC  =      -649.27495730
  PAW double counting   =    119872.99028687  -117802.73306370
  entropy T*S    EENTRO =        -0.00934063
  eigenvalues    EBANDS =     -4133.81462927
  atomic energy  EATOM  =     49749.42546356
  ---------------------------------------------------
  free energy    TOTEN  =      -162.95863672 eV

  energy without entropy =     -162.94929608  energy(sigma->0) =     -162.95396640
  exchange ACFDT corr.  =        -0.02161241  see jH, gK, PRB 81, 115126


--------------------------------------------------------------------------------------------------------




--------------------------------------- Iteration      1(   7)  ---------------------------------------


    POTLOK:  cpu time    0.3793: real time    0.3796
    SETDIJ:  cpu time    1.6238: real time    1.6240
    TRIAL :  cpu time  592.7122: real time  593.0688
    CORREC:  cpu time  583.4310: real time  583.7839
    CHARGE:  cpu time    1.5252: real time    1.5263
    --------------------------------------------
      LOOP:  cpu time 1179.7036: real time 1180.4150

 eigenvalue-minimisations  :     0
 total energy-change (2. order) :-0.2626023E+02  (-0.4978655E+01)
 number of electron     588.0000006 magnetization      -0.0000092     -0.0000072     -0.0000202
 augmentation part      153.4799110 magnetization       0.0000874      0.0002059     -0.0000470

 Free energy of the ion-electron system (eV)
  ---------------------------------------------------
  alpha Z        PSCENC =      1642.45118531
  Ewald energy   TEWEN  =    -33940.17512420
  -Hartree energ DENC   =    -16869.79081780
  -exchange      EXHF   =      1129.03666511
  -V(xc)+E(xc)   XCENC  =      -628.74400103
  PAW double counting   =    118253.45110453  -116213.32075465
  entropy T*S    EENTRO =        -0.00026654
  eigenvalues    EBANDS =     -3311.54325171
  atomic energy  EATOM  =     49749.42546356
  ---------------------------------------------------
  free energy    TOTEN  =      -189.21887150 eV

  energy without entropy =     -189.21860496  energy(sigma->0) =     -189.21873823
  exchange ACFDT corr.  =        -0.01204703  see jH, gK, PRB 81, 115126


--------------------------------------------------------------------------------------------------------




--------------------------------------- Iteration      1(   8)  ---------------------------------------


    POTLOK:  cpu time    0.3730: real time    0.3730
    SETDIJ:  cpu time    1.6407: real time    1.6412
    TRIAL :  cpu time  589.3684: real time  589.7881
    CORREC:  cpu time  584.4542: real time  584.8150
    CHARGE:  cpu time    1.4860: real time    1.4872
    --------------------------------------------
      LOOP:  cpu time 1177.3337: real time 1178.1336

 eigenvalue-minimisations  :     0
 total energy-change (2. order) :-0.5074034E+01  (-0.1735648E+01)
 number of electron     588.0000006 magnetization      -0.0000000     -0.0000054     -0.0000083
 augmentation part      153.9059542 magnetization       0.0001676      0.0001314      0.0000731

 Free energy of the ion-electron system (eV)
  ---------------------------------------------------
  alpha Z        PSCENC =      1642.45118531
  Ewald energy   TEWEN  =    -33940.17512420
  -Hartree energ DENC   =    -16894.12554152
  -exchange      EXHF   =      1135.91248357
  -V(xc)+E(xc)   XCENC  =      -627.06029686
  PAW double counting   =    117022.67864175  -114971.43754090
  entropy T*S    EENTRO =        -0.00000005
  eigenvalues    EBANDS =     -3311.96190939
  atomic energy  EATOM  =     49749.42546356
  ---------------------------------------------------
  free energy    TOTEN  =      -194.29290521 eV

  energy without entropy =     -194.29290516  energy(sigma->0) =     -194.29290519
  exchange ACFDT corr.  =        -0.00017564  see jH, gK, PRB 81, 115126


--------------------------------------------------------------------------------------------------------




--------------------------------------- Iteration      1(   9)  ---------------------------------------


    POTLOK:  cpu time    0.3728: real time    0.3735
    SETDIJ:  cpu time    1.6165: real time    1.6175
    TRIAL :  cpu time  591.0614: real time  591.4009
    CORREC:  cpu time  584.3009: real time  584.6480
    CHARGE:  cpu time    1.4567: real time    1.4572
    --------------------------------------------
      LOOP:  cpu time 1178.8338: real time 1179.5404

 eigenvalue-minimisations  :     0
 total energy-change (2. order) :-0.1783284E+01  (-0.3754969E+00)
 number of electron     588.0000006 magnetization      -0.0000006     -0.0000009     -0.0000041
 augmentation part      154.3226283 magnetization       0.0000291      0.0000308     -0.0000055

 Free energy of the ion-electron system (eV)
  ---------------------------------------------------
  alpha Z        PSCENC =      1642.45118531
  Ewald energy   TEWEN  =    -33940.17512420
  -Hartree energ DENC   =    -16914.49254647
  -exchange      EXHF   =      1138.19109831
  -V(xc)+E(xc)   XCENC  =      -625.99673071
  PAW double counting   =    111579.20639018  -109518.87529162
  entropy T*S    EENTRO =        -0.00000000
  eigenvalues    EBANDS =     -3305.81063403
  atomic energy  EATOM  =     49749.42546356
  ---------------------------------------------------
  free energy    TOTEN  =      -196.07618971 eV

  energy without entropy =     -196.07618971  energy(sigma->0) =     -196.07618971
  exchange ACFDT corr.  =        -0.00000002  see jH, gK, PRB 81, 115126


--------------------------------------------------------------------------------------------------------




--------------------------------------- Iteration      1(  10)  ---------------------------------------


    POTLOK:  cpu time    0.3867: real time    0.3870
    SETDIJ:  cpu time    1.6105: real time    1.6107
    TRIAL :  cpu time  588.6030: real time  588.9634
    CORREC:  cpu time  584.2298: real time  584.5856
    EDDIAG:  cpu time  575.5870: real time  575.9336
    CHARGE:  cpu time    1.5132: real time    1.5138
    --------------------------------------------
      LOOP:  cpu time 1751.9759: real time 1753.0574

 eigenvalue-minimisations  :     0
 total energy-change (2. order) :-0.3779655E+00  (-0.7063236E-01)
 number of electron     588.0000006 magnetization      -0.0000008     -0.0000004     -0.0000031
 augmentation part      154.2125824 magnetization      -0.0000067      0.0000213     -0.0000152

 Free energy of the ion-electron system (eV)
  ---------------------------------------------------
  alpha Z        PSCENC =      1642.45118531
  Ewald energy   TEWEN  =    -33940.17512420
  -Hartree energ DENC   =    -16951.67680141
  -exchange      EXHF   =      1139.32434543
  -V(xc)+E(xc)   XCENC  =      -624.89446635
  PAW double counting   =    110086.16656393  -108026.65623286
  entropy T*S    EENTRO =        -0.00000000
  eigenvalues    EBANDS =     -3270.41619431
  atomic energy  EATOM  =     49749.42546356
  ---------------------------------------------------
  free energy    TOTEN  =      -196.45415522 eV

  energy without entropy =     -196.45415522  energy(sigma->0) =     -196.45415522
  exchange ACFDT corr.  =        -0.00000000  see jH, gK, PRB 81, 115126


--------------------------------------------------------------------------------------------------------


  average scaling for gradient   0.9864


 average (electrostatic) potential at core
  the test charge radii are     1.0698  1.1897
  (the norm of the test charge is              1.0000)
       1 -32.8886       2 -32.7655       3 -32.7654       4 -32.8054       5 -32.7654
       6 -32.8051       7 -32.8052       8 -32.7902       9 -32.7654      10 -32.8887
      11 -32.8054      12 -32.7654      13 -32.8054      14 -32.7654      15 -32.7902
      16 -32.8054      17 -32.8054      18 -32.7654      19 -32.7902      20 -32.8055
      21 -32.7654      22 -32.8888      23 -32.8053      24 -32.7655      25 -32.7655
      26 -32.8055      27 -32.8055      28 -32.7904      29 -32.8888      30 -32.7654
      31 -32.7653      32 -32.8053      33 -32.0640      34 -87.6264      35 -87.5879
      36 -87.6255      37 -87.6264      38 -87.6264      39 -87.5879      40 -87.6255
      41 -87.6263      42 -87.6196      43 -87.6988      44 -87.6987      45 -87.6195
      46 -87.6987      47 -87.6196      48 -87.6196      49 -87.6987      50 -87.6263
      51 -87.6264      52 -87.6255      53 -87.6255      54 -87.5879      55 -87.5878
      56 -87.6263      57 -87.6264      58 -87.6255      59 -87.6264      60 -87.6255
      61 -87.6263      62 -87.6264      63 -87.5878      64 -87.6263      65 -87.5878



 E-fermi :   3.2962     XC(G=0):  -7.1212     alpha+bet : -7.2837


 k-point     1 :       0.0000    0.0000    0.0000
  band No.  band energies     occupation 
      1     -10.3827      1.00000
      2     -10.3827      1.00000
      3     -10.1530      1.00000
      4     -10.1530      1.00000
      5     -10.1525      1.00000
      6     -10.1525      1.00000
      7     -10.1525      1.00000
      8     -10.1525      1.00000
      9     -10.1397      1.00000
     10     -10.1397      1.00000
     11     -10.1397      1.00000
     12     -10.1397      1.00000
     13     -10.1000      1.00000
     14     -10.1000      1.00000
     15     -10.0539      1.00000
     16     -10.0539      1.00000
     17     -10.0493      1.00000
     18     -10.0493      1.00000
     19     -10.0493      1.00000
     20     -10.0493      1.00000
     21     -10.0418      1.00000
     22     -10.0418      1.00000
     23     -10.0380      1.00000
     24     -10.0380      1.00000
     25     -10.0340      1.00000
     26     -10.0340      1.00000
     27     -10.0340      1.00000
     28     -10.0340      1.00000
     29     -10.0252      1.00000
     30     -10.0252      1.00000
     31     -10.0252      1.00000
     32     -10.0252      1.00000
     33     -10.0166      1.00000
     34     -10.0166      1.00000
     35     -10.0124      1.00000
     36     -10.0124      1.00000
     37     -10.0124      1.00000
     38     -10.0124      1.00000
     39      -9.9924      1.00000
     40      -9.9924      1.00000
     41      -9.9743      1.00000
     42      -9.9743      1.00000
     43      -9.9619      1.00000
     44      -9.9619      1.00000
     45      -9.9619      1.00000
     46      -9.9619      1.00000
     47      -9.9389      1.00000
     48      -9.9389      1.00000
     49      -9.9282      1.00000
     50      -9.9282      1.00000
     51      -9.9282      1.00000
     52      -9.9282      1.00000
     53      -9.9100      1.00000
     54      -9.9099      1.00000
     55      -9.9043      1.00000
     56      -9.9043      1.00000
     57      -9.9043      1.00000
     58      -9.9043      1.00000
     59      -9.8877      1.00000
     60      -9.8877      1.00000
     61      -9.8768      1.00000
     62      -9.8768      1.00000
     63      -9.8768      1.00000
     64      -9.8768      1.00000
     65      -8.3032      1.00000
     66      -8.3032      1.00000
     67      -8.3031      1.00000
     68      -8.3031      1.00000
     69      -8.2925      1.00000
     70      -8.2925      1.00000
     71      -8.2733      1.00000
     72      -8.2733      1.00000
     73      -8.2378      1.00000
     74      -8.2378      1.00000
     75      -8.2378      1.00000
     76      -8.2378      1.00000
     77      -8.2264      1.00000
     78      -8.2264      1.00000
     79      -8.2264      1.00000
     80      -8.2264      1.00000
     81      -8.2134      1.00000
     82      -8.2134      1.00000
     83      -8.2134      1.00000
     84      -8.2134      1.00000
     85      -8.2095      1.00000
     86      -8.2095      1.00000
     87      -8.2095      1.00000
     88      -8.2095      1.00000
     89      -8.2021      1.00000
     90      -8.2021      1.00000
     91      -8.1995      1.00000
     92      -8.1995      1.00000
     93      -8.1995      1.00000
     94      -8.1995      1.00000
     95      -8.1981      1.00000
     96      -8.1981      1.00000
     97      -8.1958      1.00000
     98      -8.1958      1.00000
     99      -8.1958      1.00000
    100      -8.1958      1.00000
    101      -8.1896      1.00000
    102      -8.1896      1.00000
    103      -8.1896      1.00000
    104      -8.1896      1.00000
    105      -8.1876      1.00000
    106      -8.1876      1.00000
    107      -8.1859      1.00000
    108      -8.1859      1.00000
    109      -8.1827      1.00000
    110      -8.1827      1.00000
    111      -8.1827      1.00000
    112      -8.1827      1.00000
    113      -8.1708      1.00000
    114      -8.1708      1.00000
    115      -8.1678      1.00000
    116      -8.1678      1.00000
    117      -8.1664      1.00000
    118      -8.1664      1.00000
    119      -8.1664      1.00000
    120      -8.1664      1.00000
    121      -8.1612      1.00000
    122      -8.1612      1.00000
    123      -8.1612      1.00000
    124      -8.1612      1.00000
    125      -8.1412      1.00000
    126      -8.1412      1.00000
    127      -8.1412      1.00000
    128      -8.1412      1.00000
    129      -8.1311      1.00000
    130      -8.1311      1.00000
    131      -8.1120      1.00000
    132      -8.1120      1.00000
    133      -8.1062      1.00000
    134      -8.1062      1.00000
    135      -8.1061      1.00000
    136      -8.1061      1.00000
    137      -8.1026      1.00000
    138      -8.1026      1.00000
    139      -8.1026      1.00000
    140      -8.1026      1.00000
    141      -8.0964      1.00000
    142      -8.0964      1.00000
    143      -8.0935      1.00000
    144      -8.0935      1.00000
    145      -8.0935      1.00000
    146      -8.0935      1.00000
    147      -8.0885      1.00000
    148      -8.0885      1.00000
    149      -8.0854      1.00000
    150      -8.0854      1.00000
    151      -8.0835      1.00000
    152      -8.0835      1.00000
    153      -8.0835      1.00000
    154      -8.0835      1.00000
    155      -8.0804      1.00000
    156      -8.0804      1.00000
    157      -8.0804      1.00000
    158      -8.0804      1.00000
    159      -8.0768      1.00000
    160      -8.0768      1.00000
    161      -7.9716      1.00000
    162      -7.9716      1.00000
    163      -7.9640      1.00000
    164      -7.9640      1.00000
    165      -7.9612      1.00000
    166      -7.9612      1.00000
    167      -7.9612      1.00000
    168      -7.9612      1.00000
    169      -7.9436      1.00000
    170      -7.9436      1.00000
    171      -7.9435      1.00000
    172      -7.9435      1.00000
    173      -7.9147      1.00000
    174      -7.9147      1.00000
    175      -7.8995      1.00000
    176      -7.8995      1.00000
    177      -7.8850      1.00000
    178      -7.8850      1.00000
    179      -7.8850      1.00000
    180      -7.8850      1.00000
    181      -7.8758      1.00000
    182      -7.8758      1.00000
    183      -7.8757      1.00000
    184      -7.8757      1.00000
    185      -7.8651      1.00000
    186      -7.8651      1.00000
    187      -7.7973      1.00000
    188      -7.7973      1.00000
    189      -7.7973      1.00000
    190      -7.7973      1.00000
    191      -7.7778      1.00000
    192      -7.7778      1.00000
    193      -7.7572      1.00000
    194      -7.7572      1.00000
    195      -7.7571      1.00000
    196      -7.7571      1.00000
    197      -7.6558      1.00000
    198      -7.6558      1.00000
    199      -7.6031      1.00000
    200      -7.6031      1.00000
    201      -7.5798      1.00000
    202      -7.5798      1.00000
    203      -7.5617      1.00000
    204      -7.5617      1.00000
    205      -7.5616      1.00000
    206      -7.5616      1.00000
    207      -7.5424      1.00000
    208      -7.5424      1.00000
    209      -7.5369      1.00000
    210      -7.5369      1.00000
    211      -7.5356      1.00000
    212      -7.5356      1.00000
    213      -7.5355      1.00000
    214      -7.5355      1.00000
    215      -7.5329      1.00000
    216      -7.5329      1.00000
    217      -7.5329      1.00000
    218      -7.5329      1.00000
    219      -7.5222      1.00000
    220      -7.5222      1.00000
    221      -7.5222      1.00000
    222      -7.5222      1.00000
    223      -7.5207      1.00000
    224      -7.5207      1.00000
    225      -7.5138      1.00000
    226      -7.5138      1.00000
    227      -7.5073      1.00000
    228      -7.5073      1.00000
    229      -7.5072      1.00000
    230      -7.5072      1.00000
    231      -7.4995      1.00000
    232      -7.4995      1.00000
    233      -7.4994      1.00000
    234      -7.4994      1.00000
    235      -7.4994      1.00000
    236      -7.4994      1.00000
    237      -7.4946      1.00000
    238      -7.4946      1.00000
    239      -7.4898      1.00000
    240      -7.4898      1.00000
    241      -7.4875      1.00000
    242      -7.4875      1.00000
    243      -7.4875      1.00000
    244      -7.4875      1.00000
    245      -7.4850      1.00000
    246      -7.4850      1.00000
    247      -7.4850      1.00000
    248      -7.4850      1.00000
    249      -7.4739      1.00000
    250      -7.4739      1.00000
    251      -7.4691      1.00000
    252      -7.4691      1.00000
    253      -7.4691      1.00000
    254      -7.4691      1.00000
    255      -7.4654      1.00000
    256      -7.4654      1.00000
    257      -7.4628      1.00000
    258      -7.4628      1.00000
    259      -7.4628      1.00000
    260      -7.4628      1.00000
    261      -7.4560      1.00000
    262      -7.4560      1.00000
    263      -7.4560      1.00000
    264      -7.4559      1.00000
    265      -7.4495      1.00000
    266      -7.4495      1.00000
    267      -7.4425      1.00000
    268      -7.4425      1.00000
    269      -7.4425      1.00000
    270      -7.4425      1.00000
    271      -7.4408      1.00000
    272      -7.4408      1.00000
    273      -7.4341      1.00000
    274      -7.4341      1.00000
    275      -7.4341      1.00000
    276      -7.4341      1.00000
    277      -7.4337      1.00000
    278      -7.4337      1.00000
    279      -7.4171      1.00000
    280      -7.4171      1.00000
    281      -7.4171      1.00000
    282      -7.4171      1.00000
    283      -7.4092      1.00000
    284      -7.4092      1.00000
    285      -7.4073      1.00000
    286      -7.4073      1.00000
    287      -7.4072      1.00000
    288      -7.4072      1.00000
    289      -7.4061      1.00000
    290      -7.4061      1.00000
    291      -7.4022      1.00000
    292      -7.4022      1.00000
    293      -7.4022      1.00000
    294      -7.4022      1.00000
    295      -7.3998      1.00000
    296      -7.3998      1.00000
    297      -7.3963      1.00000
    298      -7.3963      1.00000
    299      -7.3941      1.00000
    300      -7.3941      1.00000
    301      -7.3941      1.00000
    302      -7.3941      1.00000
    303      -7.3910      1.00000
    304      -7.3910      1.00000
    305      -7.3910      1.00000
    306      -7.3910      1.00000
    307      -7.3835      1.00000
    308      -7.3835      1.00000
    309      -7.3832      1.00000
    310      -7.3832      1.00000
    311      -7.3832      1.00000
    312      -7.3832      1.00000
    313      -7.3782      1.00000
    314      -7.3782      1.00000
    315      -7.3782      1.00000
    316      -7.3782      1.00000
    317      -7.3779      1.00000
    318      -7.3779      1.00000
    319      -7.3765      1.00000
    320      -7.3765      1.00000
    321      -7.3764      1.00000
    322      -7.3764      1.00000
    323      -7.3395      1.00000
    324      -7.3395      1.00000
    325      -7.3395      1.00000
    326      -7.3395      1.00000
    327      -7.3374      1.00000
    328      -7.3374      1.00000
    329      -7.3319      1.00000
    330      -7.3319      1.00000
    331      -7.3300      1.00000
    332      -7.3300      1.00000
    333      -7.3300      1.00000
    334      -7.3300      1.00000
    335      -7.2617      1.00000
    336      -7.2617      1.00000
    337      -7.2617      1.00000
    338      -7.2617      1.00000
    339      -7.2361      1.00000
    340      -7.2361      1.00000
    341      -7.2122      1.00000
    342      -7.2122      1.00000
    343      -7.2122      1.00000
    344      -7.2122      1.00000
    345      -7.2003      1.00000
    346      -7.2002      1.00000
    347      -7.1802      1.00000
    348      -7.1802      1.00000
    349      -7.1802      1.00000
    350      -7.1802      1.00000
    351      -7.0886      1.00000
    352      -7.0886      1.00000
    353      -7.0886      1.00000
    354      -7.0886      1.00000
    355      -7.0841      1.00000
    356      -7.0841      1.00000
    357      -7.0750      1.00000
    358      -7.0750      1.00000
    359      -7.0668      1.00000
    360      -7.0668      1.00000
    361      -7.0644      1.00000
    362      -7.0644      1.00000
    363      -7.0644      1.00000
    364      -7.0644      1.00000
    365      -7.0553      1.00000
    366      -7.0553      1.00000
    367      -7.0474      1.00000
    368      -7.0474      1.00000
    369      -7.0474      1.00000
    370      -7.0474      1.00000
    371      -6.9491      1.00000
    372      -6.9491      1.00000
    373      -6.9344      1.00000
    374      -6.9344      1.00000
    375      -6.9301      1.00000
    376      -6.9301      1.00000
    377      -6.9301      1.00000
    378      -6.9301      1.00000
    379      -6.9281      1.00000
    380      -6.9281      1.00000
    381      -6.9281      1.00000
    382      -6.9281      1.00000
    383      -6.8241      1.00000
    384      -6.8241      1.00000
    385      -6.8241      1.00000
    386      -6.8241      1.00000
    387      -6.7963      1.00000
    388      -6.7963      1.00000
    389      -6.6091      1.00000
    390      -6.6090      1.00000
    391      -6.5770      1.00000
    392      -6.5770      1.00000
    393      -6.5770      1.00000
    394      -6.5770      1.00000
    395      -3.3593      1.00000
    396      -3.3593      1.00000
    397      -2.9815      1.00000
    398      -2.9815      1.00000
    399      -2.9811      1.00000
    400      -2.9811      1.00000
    401      -2.9811      1.00000
    402      -2.9811      1.00000
    403      -2.8929      1.00000
    404      -2.8929      1.00000
    405      -2.8929      1.00000
    406      -2.8929      1.00000
    407      -2.8888      1.00000
    408      -2.8888      1.00000
    409      -2.8650      1.00000
    410      -2.8650      1.00000
    411      -2.8393      1.00000
    412      -2.8393      1.00000
    413      -2.8393      1.00000
    414      -2.8393      1.00000
    415      -2.5962      1.00000
    416      -2.5962      1.00000
    417      -2.5962      1.00000
    418      -2.5962      1.00000
    419      -2.5799      1.00000
    420      -2.5799      1.00000
    421      -2.5673      1.00000
    422      -2.5673      1.00000
    423      -2.3474      1.00000
    424      -2.3474      1.00000
    425      -2.3474      1.00000
    426      -2.3474      1.00000
    427      -2.3438      1.00000
    428      -2.3438      1.00000
    429      -2.3229      1.00000
    430      -2.3229      1.00000
    431      -2.3229      1.00000
    432      -2.3229      1.00000
    433      -2.2381      1.00000
    434      -2.2381      1.00000
    435      -2.1426      1.00000
    436      -2.1426      1.00000
    437      -2.1426      1.00000
    438      -2.1426      1.00000
    439      -2.1338      1.00000
    440      -2.1338      1.00000
    441      -2.1338      1.00000
    442      -2.1338      1.00000
    443      -2.1206      1.00000
    444      -2.1206      1.00000
    445      -1.3359      1.00000
    446      -1.3359      1.00000
    447      -1.1635      1.00000
    448      -1.1635      1.00000
    449      -1.1635      1.00000
    450      -1.1635      1.00000
    451      -1.1595      1.00000
    452      -1.1595      1.00000
    453      -1.1487      1.00000
    454      -1.1487      1.00000
    455      -1.1487      1.00000
    456      -1.1487      1.00000
    457      -1.1217      1.00000
    458      -1.1217      1.00000
    459      -1.1050      1.00000
    460      -1.1050      1.00000
    461      -1.1050      1.00000
    462      -1.1049      1.00000
    463      -0.9301      1.00000
    464      -0.9301      1.00000
    465      -0.8083      1.00000
    466      -0.8083      1.00000
    467      -0.7686      1.00000
    468      -0.7686      1.00000
    469      -0.7686      1.00000
    470      -0.7686      1.00000
    471      -0.7244      1.00000
    472      -0.7244      1.00000
    473      -0.7244      1.00000
    474      -0.7244      1.00000
    475      -0.6847      1.00000
    476      -0.6847      1.00000
    477      -0.6649      1.00000
    478      -0.6649      1.00000
    479      -0.6371      1.00000
    480      -0.6371      1.00000
    481      -0.6371      1.00000
    482      -0.6371      1.00000
    483      -0.5736      1.00000
    484      -0.5736      1.00000
    485      -0.5736      1.00000
    486      -0.5736      1.00000
    487      -0.5517      1.00000
    488      -0.5517      1.00000
    489      -0.5517      1.00000
    490      -0.5517      1.00000
    491      -0.5316      1.00000
    492      -0.5316      1.00000
    493      -0.5076      1.00000
    494      -0.5076      1.00000
    495      -0.4967      1.00000
    496      -0.4967      1.00000
    497      -0.4967      1.00000
    498      -0.4967      1.00000
    499      -0.4726      1.00000
    500      -0.4726      1.00000
    501      -0.4605      1.00000
    502      -0.4605      1.00000
    503      -0.4605      1.00000
    504      -0.4605      1.00000
    505      -0.4465      1.00000
    506      -0.4465      1.00000
    507      -0.4465      1.00000
    508      -0.4465      1.00000
    509      -0.4300      1.00000
    510      -0.4300      1.00000
    511      -0.1506      1.00000
    512      -0.1506      1.00000
    513      -0.1506      1.00000
    514      -0.1506      1.00000
    515      -0.1086      1.00000
    516      -0.1086      1.00000
    517       0.2719      1.00000
    518       0.2719      1.00000
    519       0.3091      1.00000
    520       0.3091      1.00000
    521       0.3205      1.00000
    522       0.3205      1.00000
    523       0.3205      1.00000
    524       0.3205      1.00000
    525       0.3412      1.00000
    526       0.3412      1.00000
    527       0.3412      1.00000
    528       0.3412      1.00000
    529       0.5449      1.00000
    530       0.5449      1.00000
    531       0.5630      1.00000
    532       0.5631      1.00000
    533       0.5640      1.00000
    534       0.5640      1.00000
    535       0.5640      1.00000
    536       0.5641      1.00000
    537       0.6809      1.00000
    538       0.6809      1.00000
    539       0.6809      1.00000
    540       0.6809      1.00000
    541       0.7028      1.00000
    542       0.7028      1.00000
    543       0.7080      1.00000
    544       0.7080      1.00000
    545       0.7080      1.00000
    546       0.7080      1.00000
    547       0.7386      1.00000
    548       0.7386      1.00000
    549       0.7976      1.00000
    550       0.7976      1.00000
    551       0.7976      1.00000
    552       0.7976      1.00000
    553       0.8025      1.00000
    554       0.8025      1.00000
    555       0.8134      1.00000
    556       0.8134      1.00000
    557       0.8173      1.00000
    558       0.8173      1.00000
    559       0.8173      1.00000
    560       0.8173      1.00000
    561       0.8232      1.00000
    562       0.8232      1.00000
    563       0.8313      1.00000
    564       0.8313      1.00000
    565       0.8379      1.00000
    566       0.8379      1.00000
    567       0.8379      1.00000
    568       0.8379      1.00000
    569       0.8583      1.00000
    570       0.8583      1.00000
    571       0.8584      1.00000
    572       0.8584      1.00000
    573       1.0292      1.00000
    574       1.0292      1.00000
    575       1.0859      1.00000
    576       1.0860      1.00000
    577       1.0860      1.00000
    578       1.0860      1.00000
    579       1.1076      1.00000
    580       1.1076      1.00000
    581       1.1076      1.00000
    582       1.1076      1.00000
    583       1.8971      1.00000
    584       1.8971      1.00000
    585       1.8971      1.00000
    586       1.8971      1.00000
    587       2.5764      1.00000
    588       2.5764      1.00000
    589       3.4983      0.00000
    590       3.4984      0.00000
    591       4.0927      0.00000
    592       4.0927      0.00000
    593       4.0927      0.00000
    594       4.0927      0.00000
    595       4.0958      0.00000
    596       4.0958      0.00000
    597       4.2033      0.00000
    598       4.2033      0.00000
    599       4.9511      0.00000
    600       4.9511      0.00000
    601       4.9511      0.00000
    602       4.9511      0.00000
    603       5.0620      0.00000
    604       5.0620      0.00000
    605       5.0620      0.00000
    606       5.0620      0.00000
    607       5.0773      0.00000
    608       5.0773      0.00000
    609       5.2001      0.00000
    610       5.2001      0.00000
    611       5.2001      0.00000
    612       5.2001      0.00000
    613       5.2078      0.00000
    614       5.2078      0.00000
    615       5.2646      0.00000
    616       5.2646      0.00000
    617       5.3094      0.00000
    618       5.3095      0.00000
    619       5.4185      0.00000
    620       5.4185      0.00000
    621       5.4185      0.00000
    622       5.4185      0.00000
    623       5.4443      0.00000
    624       5.4443      0.00000
    625       5.4805      0.00000
    626       5.4805      0.00000
    627       5.4805      0.00000
    628       5.4805      0.00000
    629       5.4961      0.00000
    630       5.4961      0.00000
    631       5.5258      0.00000
    632       5.5258      0.00000
    633       5.5258      0.00000
    634       5.5258      0.00000
    635       5.6002      0.00000
    636       5.6002      0.00000
    637       5.6092      0.00000
    638       5.6093      0.00000
    639       5.6093      0.00000
    640       5.6093      0.00000
    641       5.6508      0.00000
    642       5.6508      0.00000
[...]
 l=   3
     0.0000000     0.0000000     0.0000000     0.0000000     0.0000000     0.0000000     0.0000000
     0.0000000     0.0000000     0.0000000     0.0000000     0.0000000     0.0000000     0.0000000
     0.0000000     0.0000000     0.0000000     0.0000000     0.0000000     0.0000000     0.0000000
     0.0000000     0.0000000     0.0000000     0.0000000     0.0000000     0.0000000     0.0000000
     0.0000000     0.0000000     0.0000000     0.0000000     0.0000000     0.0000000     0.0000000
     0.0000000     0.0000000     0.0000000     0.0000000     0.0000000     0.0000000     0.0000000
     0.0000000     0.0000000     0.0000000     0.0000000     0.0000000     0.0000000     0.0000000

 Ion:   61  E_soc:     -0.1815626
 l=   1
     0.0000000    -0.0301624    -0.0302382
    -0.0301624     0.0000000    -0.0301768
    -0.0302382    -0.0301768     0.0000000
 l=   2
     0.0000000    -0.0000303     0.0000000    -0.0000297    -0.0000398
    -0.0000303    -0.0000000    -0.0000279    -0.0000308    -0.0000091
     0.0000000    -0.0000279     0.0000000    -0.0000274     0.0000000
    -0.0000297    -0.0000308    -0.0000274    -0.0000000    -0.0000090
    -0.0000398    -0.0000091     0.0000000    -0.0000090    -0.0000000
 l=   3
     0.0000000     0.0000000     0.0000000     0.0000000     0.0000000     0.0000000     0.0000000
     0.0000000     0.0000000     0.0000000     0.0000000     0.0000000     0.0000000     0.0000000
     0.0000000     0.0000000     0.0000000     0.0000000     0.0000000     0.0000000     0.0000000
     0.0000000     0.0000000     0.0000000     0.0000000     0.0000000     0.0000000     0.0000000
     0.0000000     0.0000000     0.0000000     0.0000000     0.0000000     0.0000000     0.0000000
     0.0000000     0.0000000     0.0000000     0.0000000     0.0000000     0.0000000     0.0000000
     0.0000000     0.0000000     0.0000000     0.0000000     0.0000000     0.0000000     0.0000000

 Ion:   62  E_soc:     -0.1815536
 l=   1
    -0.0000000    -0.0302362    -0.0301621
    -0.0302362     0.0000000    -0.0301746
    -0.0301621    -0.0301746     0.0000000
 l=   2
    -0.0000000    -0.0000303     0.0000000    -0.0000308    -0.0000370
    -0.0000303    -0.0000000    -0.0000293    -0.0000297    -0.0000104
     0.0000000    -0.0000293     0.0000000    -0.0000271     0.0000000
    -0.0000308    -0.0000297    -0.0000271    -0.0000000    -0.0000092
    -0.0000370    -0.0000104     0.0000000    -0.0000092     0.0000000
 l=   3
     0.0000000     0.0000000     0.0000000     0.0000000     0.0000000     0.0000000     0.0000000
     0.0000000     0.0000000     0.0000000     0.0000000     0.0000000     0.0000000     0.0000000
     0.0000000     0.0000000     0.0000000     0.0000000     0.0000000     0.0000000     0.0000000
     0.0000000     0.0000000     0.0000000     0.0000000     0.0000000     0.0000000     0.0000000
     0.0000000     0.0000000     0.0000000     0.0000000     0.0000000     0.0000000     0.0000000
     0.0000000     0.0000000     0.0000000     0.0000000     0.0000000     0.0000000     0.0000000
     0.0000000     0.0000000     0.0000000     0.0000000     0.0000000     0.0000000     0.0000000

 Ion:   63  E_soc:     -0.1841065
 l=   1
     0.0000000    -0.0306580    -0.0306578
    -0.0306580     0.0000000    -0.0305608
    -0.0306578    -0.0305608     0.0000000
 l=   2
     0.0000000    -0.0000275     0.0000000    -0.0000275    -0.0000314
    -0.0000275    -0.0000000    -0.0000239    -0.0000275    -0.0000074
     0.0000000    -0.0000239     0.0000000    -0.0000236     0.0000000
    -0.0000275    -0.0000275    -0.0000236     0.0000000    -0.0000079
    -0.0000314    -0.0000074     0.0000000    -0.0000079    -0.0000000
 l=   3
     0.0000000     0.0000000     0.0000000     0.0000000     0.0000000     0.0000000     0.0000000
     0.0000000     0.0000000     0.0000000     0.0000000     0.0000000     0.0000000     0.0000000
     0.0000000     0.0000000     0.0000000     0.0000000     0.0000000     0.0000000     0.0000000
     0.0000000     0.0000000     0.0000000     0.0000000     0.0000000     0.0000000     0.0000000
     0.0000000     0.0000000     0.0000000     0.0000000     0.0000000     0.0000000     0.0000000
     0.0000000     0.0000000     0.0000000     0.0000000     0.0000000     0.0000000     0.0000000
     0.0000000     0.0000000     0.0000000     0.0000000     0.0000000     0.0000000     0.0000000

 Ion:   64  E_soc:     -0.1815531
 l=   1
     0.0000000    -0.0302389    -0.0301587
    -0.0302389     0.0000000    -0.0301751
    -0.0301587    -0.0301751     0.0000000
 l=   2
     0.0000000    -0.0000303     0.0000000    -0.0000308    -0.0000370
    -0.0000303    -0.0000000    -0.0000293    -0.0000297    -0.0000104
     0.0000000    -0.0000293     0.0000000    -0.0000271     0.0000000
    -0.0000308    -0.0000297    -0.0000271     0.0000000    -0.0000092
    -0.0000370    -0.0000104     0.0000000    -0.0000092    -0.0000000
 l=   3
     0.0000000     0.0000000     0.0000000     0.0000000     0.0000000     0.0000000     0.0000000
     0.0000000     0.0000000     0.0000000     0.0000000     0.0000000     0.0000000     0.0000000
     0.0000000     0.0000000     0.0000000     0.0000000     0.0000000     0.0000000     0.0000000
     0.0000000     0.0000000     0.0000000     0.0000000     0.0000000     0.0000000     0.0000000
     0.0000000     0.0000000     0.0000000     0.0000000     0.0000000     0.0000000     0.0000000
     0.0000000     0.0000000     0.0000000     0.0000000     0.0000000     0.0000000     0.0000000
     0.0000000     0.0000000     0.0000000     0.0000000     0.0000000     0.0000000     0.0000000

 Ion:   65  E_soc:     -0.1841088
 l=   1
     0.0000000    -0.0306578    -0.0306586
    -0.0306578     0.0000000    -0.0305613
    -0.0306586    -0.0305613    -0.0000000
 l=   2
     0.0000000    -0.0000275     0.0000000    -0.0000275    -0.0000314
    -0.0000275     0.0000000    -0.0000239    -0.0000275    -0.0000074
     0.0000000    -0.0000239     0.0000000    -0.0000236     0.0000000
    -0.0000275    -0.0000275    -0.0000236     0.0000000    -0.0000079
    -0.0000314    -0.0000074     0.0000000    -0.0000079     0.0000000
 l=   3
     0.0000000     0.0000000     0.0000000     0.0000000     0.0000000     0.0000000     0.0000000
     0.0000000     0.0000000     0.0000000     0.0000000     0.0000000     0.0000000     0.0000000
     0.0000000     0.0000000     0.0000000     0.0000000     0.0000000     0.0000000     0.0000000
     0.0000000     0.0000000     0.0000000     0.0000000     0.0000000     0.0000000     0.0000000
     0.0000000     0.0000000     0.0000000     0.0000000     0.0000000     0.0000000     0.0000000
     0.0000000     0.0000000     0.0000000     0.0000000     0.0000000     0.0000000     0.0000000
     0.0000000     0.0000000     0.0000000     0.0000000     0.0000000     0.0000000     0.0000000



 total charge     

# of ion       s       p       d       tot
------------------------------------------
    1        0.432   0.287   9.573  10.293
    2        0.443   0.301   9.573  10.317
    3        0.443   0.301   9.573  10.317
    4        0.441   0.302   9.573  10.316
    5        0.443   0.301   9.573  10.317
    6        0.441   0.302   9.573  10.316
    7        0.441   0.302   9.573  10.316
    8        0.440   0.299   9.573  10.312
    9        0.443   0.301   9.573  10.317
   10        0.432   0.287   9.573  10.293
   11        0.441   0.302   9.573  10.316
   12        0.443   0.301   9.573  10.317
   13        0.441   0.302   9.573  10.316
   14        0.443   0.301   9.573  10.317
   15        0.440   0.299   9.573  10.312
   16        0.441   0.302   9.573  10.316
   17        0.441   0.302   9.573  10.316
   18        0.443   0.301   9.573  10.317
   19        0.440   0.299   9.573  10.312
   20        0.441   0.302   9.573  10.316
   21        0.443   0.301   9.573  10.317
   22        0.432   0.287   9.573  10.293
   23        0.441   0.302   9.573  10.316
   24        0.443   0.301   9.573  10.317
   25        0.443   0.301   9.573  10.317
   26        0.441   0.302   9.573  10.316
   27        0.441   0.302   9.573  10.316
   28        0.440   0.299   9.573  10.312
   29        0.432   0.287   9.573  10.293
   30        0.443   0.301   9.573  10.317
   31        0.443   0.301   9.573  10.317
   32        0.441   0.302   9.573  10.316
   33        0.729   0.162   9.539  10.431
   34        1.311   2.212   0.020   3.543
   35        1.323   2.181   0.020   3.524
   36        1.311   2.210   0.019   3.540
   37        1.311   2.212   0.020   3.543
   38        1.311   2.212   0.020   3.543
   39        1.323   2.181   0.020   3.524
   40        1.311   2.210   0.019   3.540
   41        1.311   2.212   0.020   3.543
   42        1.311   2.207   0.019   3.537
   43        1.311   2.209   0.019   3.539
   44        1.311   2.209   0.019   3.539
   45        1.311   2.207   0.019   3.537
   46        1.311   2.209   0.019   3.539
   47        1.311   2.207   0.019   3.537
   48        1.311   2.207   0.019   3.537
   49        1.311   2.209   0.019   3.539
   50        1.311   2.212   0.020   3.543
   51        1.311   2.212   0.020   3.543
   52        1.311   2.210   0.019   3.540
   53        1.311   2.210   0.019   3.540
   54        1.323   2.181   0.020   3.524
   55        1.323   2.181   0.020   3.524
   56        1.311   2.212   0.020   3.543
   57        1.311   2.212   0.020   3.543
   58        1.311   2.210   0.019   3.540
   59        1.311   2.212   0.020   3.543
   60        1.311   2.210   0.019   3.540
   61        1.311   2.212   0.020   3.543
   62        1.311   2.212   0.020   3.543
   63        1.323   2.181   0.020   3.524
   64        1.311   2.212   0.020   3.543
   65        1.323   2.181   0.020   3.524
--------------------------------------------------
tot         56.860  80.296 316.495 453.651



 magnetization (x)

# of ion       s       p       d       tot
------------------------------------------
    1        0.000   0.000  -0.000   0.000
    2       -0.000  -0.000   0.000  -0.000
    3       -0.000  -0.000  -0.000  -0.000
    4       -0.000  -0.000   0.000  -0.000
    5       -0.000   0.000  -0.000  -0.000
    6       -0.000  -0.000   0.000  -0.000
    7       -0.000  -0.000   0.000  -0.000
    8        0.000  -0.000   0.000  -0.000
    9        0.000   0.000  -0.000   0.000
   10       -0.000   0.000  -0.000  -0.000
   11       -0.000  -0.000   0.000  -0.000
   12        0.000   0.000  -0.000   0.000
   13       -0.000  -0.000   0.000  -0.000
   14        0.000   0.000  -0.000   0.000
   15        0.000  -0.000   0.000   0.000
   16       -0.000  -0.000   0.000  -0.000
   17       -0.000   0.000  -0.000   0.000
   18       -0.000  -0.000   0.000  -0.000
   19       -0.000   0.000  -0.000  -0.000
   20       -0.000  -0.000   0.000  -0.000
   21       -0.000  -0.000   0.000  -0.000
   22       -0.000  -0.000   0.000  -0.000
   23       -0.000  -0.000   0.000  -0.000
   24       -0.000  -0.000   0.000   0.000
   25        0.000  -0.000  -0.000   0.000
   26       -0.000  -0.000  -0.000  -0.000
   27        0.000   0.000  -0.000   0.000
   28        0.000  -0.000   0.000  -0.000
   29       -0.000   0.000  -0.000   0.000
   30       -0.000  -0.000   0.000  -0.000
   31       -0.000  -0.000  -0.000  -0.000
   32       -0.000  -0.000   0.000  -0.000
   33       -0.000  -0.000   0.000  -0.000
   34        0.000   0.000  -0.000   0.000
   35        0.000   0.000   0.000   0.000
   36        0.000   0.000  -0.000   0.000
   37       -0.000  -0.000   0.000  -0.000
   38        0.000   0.000  -0.000   0.000
   39        0.000  -0.000   0.000  -0.000
   40        0.000   0.000  -0.000   0.000
   41       -0.000   0.000  -0.000  -0.000
   42        0.000   0.000  -0.000   0.000
   43        0.000   0.000  -0.000   0.000
   44       -0.000  -0.000   0.000  -0.000
   45        0.000   0.000   0.000   0.000
   46        0.000   0.000  -0.000   0.000
   47       -0.000   0.000  -0.000   0.000
   48        0.000   0.000  -0.000   0.000
   49        0.000   0.000  -0.000   0.000
   50        0.000   0.000  -0.000   0.000
   51        0.000   0.000  -0.000   0.000
   52       -0.000  -0.000   0.000  -0.000
   53        0.000   0.000  -0.000   0.000
   54        0.000  -0.000   0.000  -0.000
   55        0.000   0.000  -0.000   0.000
   56        0.000   0.000  -0.000   0.000
   57       -0.000  -0.000   0.000  -0.000
   58       -0.000   0.000  -0.000   0.000
   59        0.000   0.000  -0.000   0.000
   60       -0.000  -0.000  -0.000  -0.000
   61        0.000   0.000  -0.000   0.000
   62       -0.000  -0.000   0.000  -0.000
   63        0.000  -0.000   0.000   0.000
   64        0.000   0.000  -0.000   0.000
   65       -0.000  -0.000   0.000  -0.000
--------------------------------------------------
tot         -0.000   0.000   0.000   0.000



 magnetization (y)

# of ion       s       p       d       tot
------------------------------------------
    1       -0.000  -0.000  -0.000  -0.000
    2        0.000   0.000  -0.000   0.000
    3        0.000   0.000  -0.000   0.000
    4        0.000   0.000  -0.000   0.000
    5       -0.000   0.000  -0.000  -0.000
    6        0.000  -0.000  -0.000  -0.000
    7        0.000   0.000   0.000   0.000
    8        0.000   0.000   0.000   0.000
    9       -0.000   0.000  -0.000  -0.000
   10        0.000  -0.000  -0.000   0.000
   11        0.000   0.000  -0.000   0.000
   12        0.000   0.000  -0.000   0.000
   13        0.000   0.000   0.000   0.000
   14        0.000   0.000  -0.000   0.000
   15       -0.000  -0.000   0.000   0.000
   16        0.000   0.000   0.000   0.000
   17       -0.000  -0.000   0.000  -0.000
   18       -0.000  -0.000   0.000  -0.000
   19       -0.000  -0.000   0.000  -0.000
   20        0.000   0.000   0.000   0.000
   21        0.000   0.000   0.000   0.000
   22        0.000   0.000  -0.000   0.000
   23        0.000   0.000   0.000   0.000
   24        0.000   0.000  -0.000   0.000
   25       -0.000   0.000  -0.000  -0.000
   26       -0.000  -0.000   0.000  -0.000
   27       -0.000  -0.000   0.000  -0.000
   28       -0.000  -0.000   0.000  -0.000
   29       -0.000   0.000  -0.000   0.000
   30        0.000   0.000  -0.000   0.000
   31       -0.000   0.000   0.000  -0.000
   32        0.000   0.000  -0.000   0.000
   33       -0.000  -0.000   0.000   0.000
   34       -0.000  -0.000   0.000  -0.000
   35        0.000   0.000   0.000   0.000
   36       -0.000  -0.000   0.000  -0.000
   37       -0.000  -0.000   0.000  -0.000
   38       -0.000  -0.000   0.000  -0.000
   39        0.000   0.000   0.000   0.000
   40       -0.000  -0.000   0.000  -0.000
   41       -0.000  -0.000   0.000  -0.000
   42        0.000   0.000   0.000   0.000
   43        0.000   0.000   0.000   0.000
   44       -0.000  -0.000   0.000  -0.000
   45       -0.000   0.000   0.000   0.000
   46       -0.000  -0.000   0.000  -0.000
   47       -0.000  -0.000  -0.000  -0.000
   48        0.000   0.000  -0.000   0.000
   49       -0.000  -0.000  -0.000  -0.000
   50       -0.000  -0.000  -0.000  -0.000
   51        0.000   0.000   0.000   0.000
   52       -0.000  -0.000  -0.000  -0.000
   53       -0.000  -0.000  -0.000  -0.000
   54       -0.000   0.000   0.000   0.000
   55       -0.000  -0.000   0.000  -0.000
   56       -0.000  -0.000   0.000  -0.000
   57       -0.000  -0.000   0.000  -0.000
   58       -0.000  -0.000  -0.000  -0.000
   59       -0.000  -0.000   0.000  -0.000
   60        0.000   0.000  -0.000   0.000
   61       -0.000  -0.000   0.000  -0.000
   62       -0.000  -0.000   0.000  -0.000
   63        0.000   0.000   0.000   0.000
   64       -0.000  -0.000   0.000  -0.000
   65       -0.000  -0.000   0.000  -0.000
--------------------------------------------------
tot          0.000  -0.000   0.000  -0.000



 magnetization (z)

# of ion       s       p       d       tot
------------------------------------------
    1       -0.000  -0.000  -0.000  -0.000
    2       -0.000  -0.000   0.000  -0.000
    3       -0.000  -0.000   0.000  -0.000
    4       -0.000  -0.000   0.000  -0.000
    5       -0.000  -0.000   0.000  -0.000
    6        0.000   0.000  -0.000   0.000
    7        0.000   0.000  -0.000  -0.000
    8       -0.000  -0.000   0.000  -0.000
    9       -0.000   0.000   0.000  -0.000
   10       -0.000   0.000   0.000   0.000
   11       -0.000  -0.000   0.000  -0.000
   12        0.000  -0.000  -0.000  -0.000
   13        0.000   0.000  -0.000   0.000
   14       -0.000  -0.000   0.000  -0.000
   15       -0.000  -0.000   0.000  -0.000
   16        0.000  -0.000   0.000  -0.000
   17       -0.000  -0.000  -0.000  -0.000
   18       -0.000  -0.000   0.000  -0.000
   19        0.000   0.000  -0.000   0.000
   20        0.000   0.000   0.000   0.000
   21        0.000   0.000   0.000   0.000
   22        0.000   0.000  -0.000   0.000
   23        0.000  -0.000   0.000   0.000
   24        0.000  -0.000  -0.000   0.000
   25       -0.000   0.000   0.000   0.000
   26       -0.000  -0.000   0.000  -0.000
   27       -0.000  -0.000   0.000  -0.000
   28       -0.000  -0.000   0.000  -0.000
   29        0.000   0.000   0.000   0.000
   30        0.000  -0.000  -0.000   0.000
   31       -0.000  -0.000  -0.000  -0.000
   32       -0.000  -0.000   0.000  -0.000
   33        0.000  -0.000   0.000   0.000
   34        0.000   0.000  -0.000   0.000
   35        0.000   0.000  -0.000   0.000
   36        0.000   0.000   0.000   0.000
   37        0.000   0.000   0.000   0.000
   38       -0.000  -0.000   0.000  -0.000
   39        0.000   0.000  -0.000   0.000
   40        0.000   0.000  -0.000   0.000
   41       -0.000  -0.000   0.000  -0.000
   42        0.000   0.000  -0.000   0.000
   43        0.000   0.000   0.000   0.000
   44        0.000   0.000   0.000   0.000
   45        0.000   0.000  -0.000   0.000
   46       -0.000  -0.000  -0.000  -0.000
   47        0.000   0.000  -0.000   0.000
   48        0.000   0.000  -0.000   0.000
   49        0.000   0.000   0.000   0.000
   50       -0.000   0.000   0.000   0.000
   51        0.000   0.000   0.000   0.000
   52       -0.000  -0.000  -0.000  -0.000
   53        0.000   0.000   0.000   0.000
   54       -0.000  -0.000   0.000  -0.000
   55        0.000   0.000  -0.000   0.000
   56        0.000   0.000   0.000   0.000
   57        0.000   0.000   0.000   0.000
   58        0.000   0.000  -0.000   0.000
   59        0.000   0.000   0.000   0.000
   60        0.000   0.000  -0.000   0.000
   61        0.000   0.000  -0.000   0.000
   62       -0.000  -0.000  -0.000  -0.000
   63        0.000   0.000  -0.000   0.000
   64        0.000   0.000  -0.000   0.000
   65        0.000   0.000   0.000   0.000
--------------------------------------------------
tot          0.000   0.000   0.000   0.000


 total amount of memory used by VASP MPI-rank0   205031. kBytes
=======================================================================

   base      :      30000. kBytes
   nonl-proj :      41091. kBytes
   fftplans  :      14789. kBytes
   grid      :      37158. kBytes
   one-center:       1057. kBytes
   HF        :        129. kBytes
   nonlr-proj:      12683. kBytes
   wavefun   :      68124. kBytes

  
  
 General timing and accounting informations for this job:
 ========================================================
  
                  Total CPU time used (sec):     8865.976
                            User time (sec):     8794.405
                          System time (sec):       71.570
                         Elapsed time (sec):     9594.420
  
                   Maximum memory used (kb):      976400.
                   Average memory used (kb):           0.
  
                          Minor page faults:     11263004
                          Major page faults:           23
                 Voluntary context switches:        69995
