 +-------------------------------------------------+
 |                                                 |
 |      CCC   AA    SSS  TTTTT  EEEEE  PPPP        |
 |     C     A  A  S       T    E      P   P       |
 |     C     AAAA   SS     T    EEE    PPPP        |
 |     C     A  A     S    T    E      P           |
 |      CCC  A  A  SSS     T    EEEEE  P           |
 |                                                 |
 +-------------------------------------------------+
 |                                                 |
 | Welcome to Academic Release CASTEP version 18.1 |          
 | Ab Initio Total Energy Program                  |
 |                                                 |
 | Authors:                                        |
 | M. Segall, M. Probert, C. Pickard, P. Hasnip,   |
 | S. Clark, K. Refson, J. R. Yates, M. Payne      |
 |                                                 |
 | Contributors:                                   |
 | P. Lindan, P. Haynes, J. White, V. Milman,      |
 | N. Govind, M. Gibson, P. Tulip, V. Cocula,      |
 | B. Montanari, D. Quigley, M. Glover,            |
 | L. Bernasconi, A. Perlov, M. Plummer,           |
 | E. McNellis, J. Meyer, J. Gale, D. Jochym       |
 | J. Aarons, B. Walker, R. Gillen, D. Jones       |
 | T. Green, I. J. Bush, C. J. Armstrong,          |
 | E. J. Higgins, E. L. Brown, M. S. McFly,        |
 | J. Wilkins, B-C. Shih, P. J. P. Byrne           |
 |                                                 |
 | Copyright (c) 2000 - 2017                       |
 |                                                 |
 |     Distributed under the terms of an           |
 |     Agreement between the United Kingdom        |
 |     Car-Parrinello (UKCP) Consortium,           |
 |     Daresbury Laboratory and Accelrys, Inc.     |
 |                                                 |
 | Please cite                                     |
 |                                                 |
 |     "First principles methods using CASTEP"     |
 |                                                 |
 |         Zeitschrift fuer Kristallographie       |
 |           220(5-6) pp. 567-570 (2005)           |
 |                                                 |
 | S. J. Clark, M. D. Segall, C. J. Pickard,       |
 | P. J. Hasnip, M. J. Probert, K. Refson,         |
 | M. C. Payne                                     |
 |                                                 |
 |       in all publications arising from          |
 |              your use of CASTEP                 |
 |                                                 |
 +-------------------------------------------------+


 Compiled for linux_x86_64_gfortran7.0 on Wed, 16 May 2018 14:09:48 +0100
 from code version baee3ec33e17+  Mon, 11 Dec 2017 11:05:17 +0000
 Compiler: GNU Fortran 7.3.0; Optimisation: fast
 MATHLIBS: Intel MKL(2018.0.1) (LAPACK version 3.7.0)
 FFT Lib : mkl
 Fundamental constants values: CODATA 2014

 Run started: Wed, 08 Aug 2018 14:19:13 +0100

 Pseudo atomic calculation performed for O 2s2 2p4

 Converged in 13 iterations to a total energy of -430.9847 eV


 Pseudo atomic calculation performed for Al 3s2 3p1

 Converged in 14 iterations to a total energy of -53.3906 eV

 Calculation parallelised over 768 processes.
 Data is distributed by G-vector(384-way) and k-point(2-way)

 ************************************ Title ************************************
 3x3 sapphire surface benchmark (v1.1)

 ***************************** General Parameters ******************************
  
 output verbosity                               : normal  (1)
 write checkpoint data to                       : al3x3.check
 type of calculation                            : single point energy
 stress calculation                             : off
 density difference calculation                 : off
 electron localisation func (ELF) calculation   : off
 Hirshfeld analysis                             : off
 unlimited duration calculation
 timing information                             : on
 memory usage estimate                          : on
 write extra output files                       : on
 write final potential to formatted file        : off
 write final density to formatted file          : off
 write BibTeX reference list                    : on
 write OTFG pseudopotential files               : on
 write electrostatic potential file             : on
 write bands file                               : on
 checkpoint writing                             : both castep_bin and check files
  
 output         length unit                     : A
 output           mass unit                     : amu
 output           time unit                     : ps
 output         charge unit                     : e
 output           spin unit                     : hbar/2
 output         energy unit                     : eV
 output          force unit                     : eV/A
 output       velocity unit                     : A/ps
 output       pressure unit                     : GPa
 output     inv_length unit                     : 1/A
 output      frequency unit                     : cm-1
 output force constant unit                     : eV/A**2
 output         volume unit                     : A**3
 output   IR intensity unit                     : (D/A)**2/amu
 output         dipole unit                     : D
 output         efield unit                     : eV/A/e
 output        entropy unit                     : J/mol/K
  
 wavefunctions paging                           : none
 random number generator seed                   :          1
 data distribution                              : optimal for this architecture
 optimization strategy                          : maximize speed(+++)

 *********************** Exchange-Correlation Parameters ***********************
  
 using functional                               : Perdew Wang (1991)
 relativistic treatment                         : Koelling-Harmon
 DFT+D: Semi-empirical dispersion correction    : off

 ************************* Pseudopotential Parameters **************************
  
 pseudopotential representation                 : reciprocal space
 <beta|phi> representation                      : reciprocal space
 spin-orbit coupling                            : off

 **************************** Basis Set Parameters *****************************
  
 plane wave basis set cut-off                   :   400.0000   eV
 size of standard grid                          :     1.7500
 size of   fine   gmax                          :    17.9311   1/A
 finite basis set correction                    : none

 **************************** Electronic Parameters ****************************
  
 number of  electrons                           :  1296.    
 net charge of system                           :  0.000    
 treating system as non-spin-polarized
 number of bands                                :        768

 ********************* Electronic Minimization Parameters **********************
  
 Method: Treating system as metallic with density mixing treatment of electrons,
         and number of  SD  steps               :          1
         and number of  CG  steps               :          4
  
 total energy / atom convergence tol.           : 0.1500E-01   eV
 eigen-energy convergence tolerance             : 0.1000E-05   eV
 max force / atom convergence tol.              : ignored
 convergence tolerance window                   :          3   cycles
 max. number of SCF cycles                      :         40
 smearing scheme                                : Gaussian
 smearing width                                 : 0.1000       eV
 Fermi energy convergence tolerance             : 0.2721E-13   eV
 periodic dipole correction                     : NONE

 ************************** Density Mixing Parameters **************************
  
 density-mixing scheme                          : Pulay
 max. length of mixing history                  :         20
 charge density mixing amplitude                : 0.8000    
 cut-off energy for mixing                      :  400.0       eV

 *******************************************************************************
  

                           -------------------------------
                                      Unit Cell
                           -------------------------------
        Real Lattice(A)                      Reciprocal Lattice(1/A)
    12.3642447    -7.1385000     0.0000000        0.508173808   0.000000000   0.000000000
     0.0000000    14.2770000     0.0000000        0.254086904   0.440091427   0.000000000
     0.0000000     0.0000000    27.5000000        0.000000000   0.000000000   0.228479466

                       Lattice parameters(A)       Cell Angles
                    a =     14.277000          alpha =   90.000000
                    b =     14.277000          beta  =   90.000000
                    c =     27.500000          gamma =  120.000000

                       Current cell volume =          4854.418839       A**3
                                   density =             1.134206   AMU/A**3
                                           =             1.883393     g/cm^3

                           -------------------------------
                                     Cell Contents
                           -------------------------------
                         Total number of ions in cell =  270
                      Total number of species in cell =    2
                        Max number of any one species =  162

            xxxxxxxxxxxxxxxxxxxxxxxxxxxxxxxxxxxxxxxxxxxxxxxxxxxxxxxxxxxx
            x  Element    Atom        Fractional coordinates of atoms  x
            x            Number           u          v          w      x
            x----------------------------------------------------------x
            x  O            1         0.102000   0.000000   0.645700   x 
            x  O            2         0.000000   0.102000   0.645700   x 
            x  O            3         0.231333   0.231333   0.645700   x 
            x  O            4         0.009111   0.222222   0.724433   x 
            x  O            5         0.111111   0.120222   0.724433   x 
            x  O            6         0.213111   0.324222   0.724433   x 
            x  O            7         0.120222   0.111111   0.566967   x 
            x  O            8         0.222222   0.009111   0.566967   x 
            x  O            9         0.324222   0.213111   0.566967   x 
            x  O           10         0.324222   0.111111   0.803167   x 
            x  O           11         0.222222   0.213111   0.803167   x 
            x  O           12         0.120222   0.009111   0.803167   x 
            x  O           13         0.213111   0.222222   0.960633   x 
            x  O           14         0.111111   0.324222   0.960633   x 
            x  O           15         0.009111   0.120222   0.960633   x 
            x  O           16         0.231333   0.000000   0.881900   x 
            x  O           17         0.000000   0.231333   0.881900   x 
            x  O           18         0.102000   0.102000   0.881900   x 
            x  O           19         0.102000   0.333333   0.645700   x 
            x  O           20         0.000000   0.435333   0.645700   x 
            x  O           21         0.231333   0.564667   0.645700   x 
            x  O           22         0.009111   0.555556   0.724433   x 
            x  O           23         0.111111   0.453556   0.724433   x 
            x  O           24         0.213111   0.657556   0.724433   x 
            x  O           25         0.120222   0.444444   0.566967   x 
            x  O           26         0.222222   0.342444   0.566967   x 
            x  O           27         0.324222   0.546444   0.566967   x 
            x  O           28         0.324222   0.444444   0.803167   x 
            x  O           29         0.222222   0.546444   0.803167   x 
            x  O           30         0.120222   0.342444   0.803167   x 
            x  O           31         0.213111   0.555556   0.960633   x 
            x  O           32         0.111111   0.657556   0.960633   x 
            x  O           33         0.009111   0.453556   0.960633   x 
            x  O           34         0.231333   0.333333   0.881900   x 
            x  O           35         0.000000   0.564667   0.881900   x 
            x  O           36         0.102000   0.435333   0.881900   x 
            x  O           37         0.102000   0.666667   0.645700   x 
            x  O           38         0.000000   0.768667   0.645700   x 
            x  O           39         0.231333   0.898000   0.645700   x 
            x  O           40         0.009111   0.888889   0.724433   x 
            x  O           41         0.111111   0.786889   0.724433   x 
            x  O           42         0.213111   0.990889   0.724433   x 
            x  O           43         0.120222   0.777778   0.566967   x 
            x  O           44         0.222222   0.675778   0.566967   x 
            x  O           45         0.324222   0.879778   0.566967   x 
            x  O           46         0.324222   0.777778   0.803167   x 
            x  O           47         0.222222   0.879778   0.803167   x 
            x  O           48         0.120222   0.675778   0.803167   x 
            x  O           49         0.213111   0.888889   0.960633   x 
            x  O           50         0.111111   0.990889   0.960633   x 
            x  O           51         0.009111   0.786889   0.960633   x 
            x  O           52         0.231333   0.666667   0.881900   x 
            x  O           53         0.000000   0.898000   0.881900   x 
            x  O           54         0.102000   0.768667   0.881900   x 
            x  O           55         0.435333   0.000000   0.645700   x 
            x  O           56         0.333333   0.102000   0.645700   x 
            x  O           57         0.564667   0.231333   0.645700   x 
            x  O           58         0.342444   0.222222   0.724433   x 
            x  O           59         0.444444   0.120222   0.724433   x 
            x  O           60         0.546444   0.324222   0.724433   x 
            x  O           61         0.453556   0.111111   0.566967   x 
            x  O           62         0.555556   0.009111   0.566967   x 
            x  O           63         0.657556   0.213111   0.566967   x 
            x  O           64         0.657556   0.111111   0.803167   x 
            x  O           65         0.555556   0.213111   0.803167   x 
            x  O           66         0.453556   0.009111   0.803167   x 
            x  O           67         0.546444   0.222222   0.960633   x 
            x  O           68         0.444444   0.324222   0.960633   x 
            x  O           69         0.342444   0.120222   0.960633   x 
            x  O           70         0.564667   0.000000   0.881900   x 
            x  O           71         0.333333   0.231333   0.881900   x 
            x  O           72         0.435333   0.102000   0.881900   x 
            x  O           73         0.435333   0.333333   0.645700   x 
            x  O           74         0.333333   0.435333   0.645700   x 
            x  O           75         0.564667   0.564667   0.645700   x 
            x  O           76         0.342444   0.555556   0.724433   x 
            x  O           77         0.444444   0.453556   0.724433   x 
            x  O           78         0.546444   0.657556   0.724433   x 
            x  O           79         0.453556   0.444444   0.566967   x 
            x  O           80         0.555556   0.342444   0.566967   x 
            x  O           81         0.657556   0.546444   0.566967   x 
            x  O           82         0.657556   0.444444   0.803167   x 
            x  O           83         0.555556   0.546444   0.803167   x 
            x  O           84         0.453556   0.342444   0.803167   x 
            x  O           85         0.546444   0.555556   0.960633   x 
            x  O           86         0.444444   0.657556   0.960633   x 
            x  O           87         0.342444   0.453556   0.960633   x 
            x  O           88         0.564667   0.333333   0.881900   x 
            x  O           89         0.333333   0.564667   0.881900   x 
            x  O           90         0.435333   0.435333   0.881900   x 
            x  O           91         0.435333   0.666667   0.645700   x 
            x  O           92         0.333333   0.768667   0.645700   x 
            x  O           93         0.564667   0.898000   0.645700   x 
            x  O           94         0.342444   0.888889   0.724433   x 
            x  O           95         0.444444   0.786889   0.724433   x 
            x  O           96         0.546444   0.990889   0.724433   x 
            x  O           97         0.453556   0.777778   0.566967   x 
            x  O           98         0.555556   0.675778   0.566967   x 
            x  O           99         0.657556   0.879778   0.566967   x 
            x  O          100         0.657556   0.777778   0.803167   x 
            x  O          101         0.555556   0.879778   0.803167   x 
            x  O          102         0.453556   0.675778   0.803167   x 
            x  O          103         0.546444   0.888889   0.960633   x 
            x  O          104         0.444444   0.990889   0.960633   x 
            x  O          105         0.342444   0.786889   0.960633   x 
            x  O          106         0.564667   0.666667   0.881900   x 
            x  O          107         0.333333   0.898000   0.881900   x 
            x  O          108         0.435333   0.768667   0.881900   x 
            x  O          109         0.768667   0.000000   0.645700   x 
            x  O          110         0.666667   0.102000   0.645700   x 
            x  O          111         0.898000   0.231333   0.645700   x 
            x  O          112         0.675778   0.222222   0.724433   x 
            x  O          113         0.777778   0.120222   0.724433   x 
            x  O          114         0.879778   0.324222   0.724433   x 
            x  O          115         0.786889   0.111111   0.566967   x 
            x  O          116         0.888889   0.009111   0.566967   x 
            x  O          117         0.990889   0.213111   0.566967   x 
            x  O          118         0.990889   0.111111   0.803167   x 
            x  O          119         0.888889   0.213111   0.803167   x 
            x  O          120         0.786889   0.009111   0.803167   x 
            x  O          121         0.879778   0.222222   0.960633   x 
            x  O          122         0.777778   0.324222   0.960633   x 
            x  O          123         0.675778   0.120222   0.960633   x 
            x  O          124         0.898000   0.000000   0.881900   x 
            x  O          125         0.666667   0.231333   0.881900   x 
            x  O          126         0.768667   0.102000   0.881900   x 
            x  O          127         0.768667   0.333333   0.645700   x 
            x  O          128         0.666667   0.435333   0.645700   x 
            x  O          129         0.898000   0.564667   0.645700   x 
            x  O          130         0.675778   0.555556   0.724433   x 
            x  O          131         0.777778   0.453556   0.724433   x 
            x  O          132         0.879778   0.657556   0.724433   x 
            x  O          133         0.786889   0.444444   0.566967   x 
            x  O          134         0.888889   0.342444   0.566967   x 
            x  O          135         0.990889   0.546444   0.566967   x 
            x  O          136         0.990889   0.444444   0.803167   x 
            x  O          137         0.888889   0.546444   0.803167   x 
            x  O          138         0.786889   0.342444   0.803167   x 
            x  O          139         0.879778   0.555556   0.960633   x 
            x  O          140         0.777778   0.657556   0.960633   x 
            x  O          141         0.675778   0.453556   0.960633   x 
            x  O          142         0.898000   0.333333   0.881900   x 
            x  O          143         0.666667   0.564667   0.881900   x 
            x  O          144         0.768667   0.435333   0.881900   x 
            x  O          145         0.768667   0.666667   0.645700   x 
            x  O          146         0.666667   0.768667   0.645700   x 
            x  O          147         0.898000   0.898000   0.645700   x 
            x  O          148         0.675778   0.888889   0.724433   x 
            x  O          149         0.777778   0.786889   0.724433   x 
            x  O          150         0.879778   0.990889   0.724433   x 
            x  O          151         0.786889   0.777778   0.566967   x 
            x  O          152         0.888889   0.675778   0.566967   x 
            x  O          153         0.990889   0.879778   0.566967   x 
            x  O          154         0.990889   0.777778   0.803167   x 
            x  O          155         0.888889   0.879778   0.803167   x 
            x  O          156         0.786889   0.675778   0.803167   x 
            x  O          157         0.879778   0.888889   0.960633   x 
            x  O          158         0.777778   0.990889   0.960633   x 
            x  O          159         0.675778   0.786889   0.960633   x 
            x  O          160         0.898000   0.666667   0.881900   x 
            x  O          161         0.666667   0.898000   0.881900   x 
            x  O          162         0.768667   0.768667   0.881900   x 
            x  Al           1         0.000000   0.000000   0.693885   x 
            x  Al           2         0.000000   0.000000   0.597515   x 
            x  Al           3         0.222222   0.111111   0.615151   x 
            x  Al           4         0.111111   0.222222   0.676249   x 
            x  Al           5         0.222222   0.111111   0.754982   x 
            x  Al           6         0.111111   0.222222   0.772618   x 
            x  Al           7         0.222222   0.111111   0.991182   x 
            x  Al           8         0.111111   0.222222   0.536418   x 
            x  Al           9         0.000000   0.000000   0.833715   x 
            x  Al          10         0.222222   0.111111   0.851351   x 
            x  Al          11         0.000000   0.000000   0.930085   x 
            x  Al          12         0.111111   0.222222   0.912449   x 
            x  Al          13         0.000000   0.333333   0.693885   x 
            x  Al          14         0.000000   0.333333   0.597515   x 
            x  Al          15         0.222222   0.444444   0.615151   x 
            x  Al          16         0.111111   0.555556   0.676249   x 
            x  Al          17         0.222222   0.444444   0.754982   x 
            x  Al          18         0.111111   0.555556   0.772618   x 
            x  Al          19         0.222222   0.444444   0.991182   x 
            x  Al          20         0.111111   0.555556   0.536418   x 
            x  Al          21         0.000000   0.333333   0.833715   x 
            x  Al          22         0.222222   0.444444   0.851351   x 
            x  Al          23         0.000000   0.333333   0.930085   x 
            x  Al          24         0.111111   0.555556   0.912449   x 
            x  Al          25         0.000000   0.666667   0.693885   x 
            x  Al          26         0.000000   0.666667   0.597515   x 
            x  Al          27         0.222222   0.777778   0.615151   x 
            x  Al          28         0.111111   0.888889   0.676249   x 
            x  Al          29         0.222222   0.777778   0.754982   x 
            x  Al          30         0.111111   0.888889   0.772618   x 
            x  Al          31         0.222222   0.777778   0.991182   x 
            x  Al          32         0.111111   0.888889   0.536418   x 
            x  Al          33         0.000000   0.666667   0.833715   x 
            x  Al          34         0.222222   0.777778   0.851351   x 
            x  Al          35         0.000000   0.666667   0.930085   x 
            x  Al          36         0.111111   0.888889   0.912449   x 
            x  Al          37         0.333333   0.000000   0.693885   x 
            x  Al          38         0.333333   0.000000   0.597515   x 
            x  Al          39         0.555556   0.111111   0.615151   x 
            x  Al          40         0.444444   0.222222   0.676249   x 
            x  Al          41         0.555556   0.111111   0.754982   x 
            x  Al          42         0.444444   0.222222   0.772618   x 
            x  Al          43         0.555556   0.111111   0.991182   x 
            x  Al          44         0.444444   0.222222   0.536418   x 
            x  Al          45         0.333333   0.000000   0.833715   x 
            x  Al          46         0.555556   0.111111   0.851351   x 
            x  Al          47         0.333333   0.000000   0.930085   x 
            x  Al          48         0.444444   0.222222   0.912449   x 
            x  Al          49         0.333333   0.333333   0.693885   x 
            x  Al          50         0.333333   0.333333   0.597515   x 
            x  Al          51         0.555556   0.444444   0.615151   x 
            x  Al          52         0.444444   0.555556   0.676249   x 
            x  Al          53         0.555556   0.444444   0.754982   x 
            x  Al          54         0.444444   0.555556   0.772618   x 
            x  Al          55         0.555556   0.444444   0.991182   x 
            x  Al          56         0.444444   0.555556   0.536418   x 
            x  Al          57         0.333333   0.333333   0.833715   x 
            x  Al          58         0.555556   0.444444   0.851351   x 
            x  Al          59         0.333333   0.333333   0.930085   x 
            x  Al          60         0.444444   0.555556   0.912449   x 
            x  Al          61         0.333333   0.666667   0.693885   x 
            x  Al          62         0.333333   0.666667   0.597515   x 
            x  Al          63         0.555556   0.777778   0.615151   x 
            x  Al          64         0.444444   0.888889   0.676249   x 
            x  Al          65         0.555556   0.777778   0.754982   x 
            x  Al          66         0.444444   0.888889   0.772618   x 
            x  Al          67         0.555556   0.777778   0.991182   x 
            x  Al          68         0.444444   0.888889   0.536418   x 
            x  Al          69         0.333333   0.666667   0.833715   x 
            x  Al          70         0.555556   0.777778   0.851351   x 
            x  Al          71         0.333333   0.666667   0.930085   x 
            x  Al          72         0.444444   0.888889   0.912449   x 
            x  Al          73         0.666667   0.000000   0.693885   x 
            x  Al          74         0.666667   0.000000   0.597515   x 
            x  Al          75         0.888889   0.111111   0.615151   x 
            x  Al          76         0.777778   0.222222   0.676249   x 
            x  Al          77         0.888889   0.111111   0.754982   x 
            x  Al          78         0.777778   0.222222   0.772618   x 
            x  Al          79         0.888889   0.111111   0.991182   x 
            x  Al          80         0.777778   0.222222   0.536418   x 
            x  Al          81         0.666667   0.000000   0.833715   x 
            x  Al          82         0.888889   0.111111   0.851351   x 
            x  Al          83         0.666667   0.000000   0.930085   x 
            x  Al          84         0.777778   0.222222   0.912449   x 
            x  Al          85         0.666667   0.333333   0.693885   x 
            x  Al          86         0.666667   0.333333   0.597515   x 
            x  Al          87         0.888889   0.444444   0.615151   x 
            x  Al          88         0.777778   0.555556   0.676249   x 
            x  Al          89         0.888889   0.444444   0.754982   x 
            x  Al          90         0.777778   0.555556   0.772618   x 
            x  Al          91         0.888889   0.444444   0.991182   x 
            x  Al          92         0.777778   0.555556   0.536418   x 
            x  Al          93         0.666667   0.333333   0.833715   x 
            x  Al          94         0.888889   0.444444   0.851351   x 
            x  Al          95         0.666667   0.333333   0.930085   x 
            x  Al          96         0.777778   0.555556   0.912449   x 
            x  Al          97         0.666667   0.666667   0.693885   x 
            x  Al          98         0.666667   0.666667   0.597515   x 
            x  Al          99         0.888889   0.777778   0.615151   x 
            x  Al         100         0.777778   0.888889   0.676249   x 
            x  Al         101         0.888889   0.777778   0.754982   x 
            x  Al         102         0.777778   0.888889   0.772618   x 
            x  Al         103         0.888889   0.777778   0.991182   x 
            x  Al         104         0.777778   0.888889   0.536418   x 
            x  Al         105         0.666667   0.666667   0.833715   x 
            x  Al         106         0.888889   0.777778   0.851351   x 
            x  Al         107         0.666667   0.666667   0.930085   x 
            x  Al         108         0.777778   0.888889   0.912449   x 
            xxxxxxxxxxxxxxxxxxxxxxxxxxxxxxxxxxxxxxxxxxxxxxxxxxxxxxxxxxxx


                         No user defined ionic velocities

                           -------------------------------
                                   Details of Species
                           -------------------------------

                               Mass of species in AMU
                                    O   15.9994000
                                    Al   26.9815400

                          Electric Quadrupole Moment (Barn)
                                    O   -0.0255800 Isotope 17
                                    Al    0.1466000 Isotope 27

                          Files used for pseudopotentials:
                                    O O_00.usp
                                    Al Al_00.usp

                           -------------------------------
                              k-Points For BZ Sampling
                           -------------------------------
                       MP grid size for SCF calculation is  2  2  1
                            with an offset of   0.000  0.000  0.000
                       Number of kpoints used =             2

                           -------------------------------
                               Symmetry and Constraints
                           -------------------------------

                      Cell is a supercell containing 9 primitive cells
                      Maximum deviation from symmetry =  0.00000         ANG

                      Number of symmetry operations   =           1
                      Number of ionic constraints     =           3
                      Point group of crystal =     1: C1, 1, 1
                      Space group of crystal =   147: P-3, -P 3

             Set iprint > 1 for details on symmetry rotations/translations

                         Centre of mass is constrained
             Set iprint > 1 for details of linear ionic constraints

                         Number of cell constraints= 0
                         Cell constraints are:  1 2 3 4 5 6

                         External pressure/stress (GPa)
                          0.00000   0.00000   0.00000
                                    0.00000   0.00000
                                              0.00000
  
+---------------- MEMORY AND SCRATCH DISK ESTIMATES PER PROCESS --------------+
|                                                     Memory          Disk    |
| Baseline code, static data and system overhead      764.0 MB         0.0 MB |
| BLAS internal memory storage                          0.0 MB         0.0 MB |
| Model and support data                               34.9 MB         0.0 MB |
| Electronic energy minimisation requirements          21.3 MB         0.0 MB |
| Force calculation requirements                        0.6 MB         0.0 MB |
|                                               ----------------------------- |
| Approx. total storage required per process          820.2 MB         0.0 MB |
|                                                                             |
| Requirements will fluctuate during execution and may exceed these estimates |
+-----------------------------------------------------------------------------+
Calculating total energy with cut-off of  400.000 eV.
------------------------------------------------------------------------ <-- SCF
SCF loop      Energy           Fermi           Energy gain       Timer   <-- SCF
                               energy          per atom          (sec)   <-- SCF
------------------------------------------------------------------------ <-- SCF
Initial  -5.93918780E+004  0.00000000E+000                         3.84  <-- SCF
      1  -7.23974581E+004  4.01944583E+000   4.81688153E+001      18.59  <-- SCF
      2  -7.78247228E+004  1.88488584E+000   2.01009801E+001      28.42  <-- SCF
      3  -7.79864643E+004  1.80052259E+000   5.99042577E-001      38.37  <-- SCF
      4  -7.78412677E+004  1.95938655E+000  -5.37765159E-001      51.10  <-- SCF
      5  -7.77211174E+004  1.34869461E+000  -4.45000919E-001      63.57  <-- SCF
      6  -7.77152217E+004  1.12208017E+000  -2.18358223E-002      77.09  <-- SCF
      7  -7.77129485E+004  1.05283817E+000  -8.41942610E-003      89.66  <-- SCF
      8  -7.77104504E+004  1.02757199E+000  -9.25227594E-003     102.22  <-- SCF
      9  -7.77084292E+004  9.96344495E-001  -7.48583972E-003     114.60  <-- SCF
     10  -7.77059779E+004  1.11171982E+000  -9.07907230E-003     126.91  <-- SCF
     11  -7.77052129E+004  1.16187042E+000  -2.83323397E-003     138.71  <-- SCF
------------------------------------------------------------------------ <-- SCF
 
Final energy, E             =  -77705.21288463     eV
Final free energy (E-TS)    =  -77705.21288463     eV
(energies not corrected for finite basis set)
 
NB est. 0K energy (E-0.5TS)      =  -77705.21288463     eV
 

Writing analysis data to al3x3.castep_bin

Writing model to al3x3.check

 ************************** Forces **************************
 *                                                          *
 *               Cartesian components (eV/A)                *
 * -------------------------------------------------------- *
 *                         x            y            z      *
 *                                                          *
 * O               1      0.16795      0.02382      0.81964 *
 * O               2     -0.10154      0.12725      0.82288 *
 * O               3     -0.06019     -0.15155      0.82663 *
 * O               4     -0.10180      0.02424      0.37690 *
 * O               5      0.02094     -0.10157      0.37844 *
 * O               6      0.07845      0.07370      0.37983 *
 * O               7     -1.65664      1.75963     -1.01935 *
 * O               8     -0.67360     -2.26595     -1.02419 *
 * O               9      2.32513      0.54892     -1.03055 *
 * O              10      0.08513     -0.01650     -0.38288 *
 * O              11     -0.02631      0.08115     -0.38570 *
 * O              12     -0.05643     -0.06075     -0.38365 *
 * O              13      1.66483     -1.78285      0.96485 *
 * O              14      0.70063      2.30795      0.97470 *
 * O              15     -2.38663     -0.54036      0.96741 *
 * O              16     -0.17910     -0.00640     -0.77357 *
 * O              17      0.09282     -0.13781     -0.77158 *
 * O              18      0.07874      0.14988     -0.77800 *
 * O              19      0.16556      0.02221      0.83075 *
 * O              20     -0.10084      0.12707      0.82420 *
 * O              21     -0.06497     -0.15560      0.82361 *
 * O              22     -0.10038      0.02920      0.38017 *
 * O              23      0.02458     -0.10100      0.37959 *
 * O              24      0.07562      0.07454      0.37438 *
 * O              25     -1.66656      1.77182     -1.02630 *
 * O              26     -0.68983     -2.31780     -1.03955 *
 * O              27      2.34803      0.55557     -1.03540 *
 * O              28      0.08206     -0.01074     -0.38381 *
 * O              29     -0.01925      0.08246     -0.38514 *
 * O              30     -0.05939     -0.06460     -0.38342 *
 * O              31      1.63640     -1.75434      0.96557 *
 * O              32      0.69911      2.28758      0.96794 *
 * O              33     -2.35168     -0.54045      0.97282 *
 * O              34     -0.17472     -0.01214     -0.77506 *
 * O              35      0.09909     -0.14548     -0.76267 *
 * O              36      0.07436      0.15228     -0.77241 *
 * O              37      0.16716      0.01687      0.83270 *
 * O              38     -0.10062      0.12684      0.82522 *
 * O              39     -0.05896     -0.14027      0.82525 *
 * O              40     -0.10149      0.02996      0.37711 *
 * O              41      0.02702     -0.10272      0.37713 *
 * O              42      0.08322      0.07649      0.37748 *
 * O              43     -1.67535      1.77814     -1.02414 *
 * O              44     -0.67912     -2.29066     -1.02819 *
 * O              45      2.35155      0.55587     -1.02967 *
 * O              46      0.08606     -0.01647     -0.37926 *
 * O              47     -0.02533      0.08173     -0.38985 *
 * O              48     -0.05890     -0.06217     -0.38308 *
 * O              49      1.66718     -1.79672      0.95698 *
 * O              50      0.68831      2.28322      0.97710 *
 * O              51     -2.35493     -0.53832      0.97938 *
 * O              52     -0.17471     -0.01735     -0.77287 *
 * O              53      0.10191     -0.14300     -0.76903 *
 * O              54      0.07527      0.15139     -0.77358 *
 * O              55      0.16747      0.01754      0.82742 *
 * O              56     -0.10314      0.13240      0.81702 *
 * O              57     -0.06293     -0.14620      0.82807 *
 * O              58     -0.10166      0.02722      0.37843 *
 * O              59      0.02588     -0.10335      0.38263 *
 * O              60      0.07929      0.07213      0.37443 *
 * O              61     -1.67037      1.77815     -1.02592 *
 * O              62     -0.68815     -2.30826     -1.03413 *
 * O              63      2.35425      0.55115     -1.03693 *
 * O              64      0.08640     -0.01665     -0.38542 *
 * O              65     -0.02122      0.07950     -0.38553 *
 * O              66     -0.05954     -0.06399     -0.37885 *
 * O              67      1.65892     -1.77975      0.96221 *
 * O              68      0.70570      2.30670      0.97102 *
 * O              69     -2.35951     -0.55310      0.97135 *
 * O              70     -0.17280     -0.01216     -0.76958 *
 * O              71      0.09561     -0.13919     -0.76616 *
 * O              72      0.07296      0.14826     -0.76755 *
 * O              73      0.16593      0.02328      0.82152 *
 * O              74     -0.09575      0.12789      0.82597 *
 * O              75     -0.06890     -0.15046      0.83125 *
 * O              76     -0.09418      0.02791      0.38305 *
 * O              77      0.02074     -0.10267      0.37816 *
 * O              78      0.07791      0.07377      0.37875 *
 * O              79     -1.66109      1.75141     -1.02534 *
 * O              80     -0.68815     -2.28973     -1.02287 *
 * O              81      2.38124      0.55611     -1.03553 *
 * O              82      0.08505     -0.02273     -0.38440 *
 * O              83     -0.01975      0.08124     -0.39257 *
 * O              84     -0.05662     -0.06103     -0.37745 *
 * O              85      1.66060     -1.77363      0.96660 *
 * O              86      0.70269      2.29874      0.97169 *
 * O              87     -2.37008     -0.54210      0.96496 *
 * O              88     -0.17708     -0.00982     -0.77666 *
 * O              89      0.09775     -0.14154     -0.76868 *
 * O              90      0.07951      0.15335     -0.77183 *
 * O              91      0.16399      0.02097      0.82290 *
 * O              92     -0.10284      0.12548      0.81855 *
 * O              93     -0.05949     -0.15073      0.82054 *
 * O              94     -0.10466      0.02668      0.37753 *
 * O              95      0.02326     -0.09659      0.37840 *
 * O              96      0.08348      0.07465      0.37828 *
 * O              97     -1.65569      1.76162     -1.02545 *
 * O              98     -0.67903     -2.28548     -1.02364 *
 * O              99      2.32424      0.54929     -1.02498 *
 * O             100      0.08096     -0.01416     -0.38419 *
 * O             101     -0.02411      0.08126     -0.38449 *
 * O             102     -0.05777     -0.06409     -0.38615 *
 * O             103      1.65144     -1.75755      0.96739 *
 * O             104      0.69037      2.27619      0.96709 *
 * O             105     -2.37654     -0.54382      0.97500 *
 * O             106     -0.17473     -0.01179     -0.77043 *
 * O             107      0.10319     -0.14263     -0.77335 *
 * O             108      0.07917      0.15248     -0.77266 *
 * O             109      0.16548      0.01513      0.82885 *
 * O             110     -0.10713      0.12747      0.82887 *
 * O             111     -0.05739     -0.15027      0.82366 *
 * O             112     -0.10395      0.02552      0.37885 *
 * O             113      0.02262     -0.10152      0.37701 *
 * O             114      0.08501      0.07506      0.37738 *
 * O             115     -1.65737      1.77604     -1.02352 *
 * O             116     -0.68852     -2.30729     -1.02623 *
 * O             117      2.32718      0.55498     -1.02634 *
 * O             118      0.08352     -0.01705     -0.38587 *
 * O             119     -0.02161      0.07836     -0.38273 *
 * O             120     -0.06209     -0.06227     -0.38542 *
 * O             121      1.64358     -1.75749      0.96446 *
 * O             122      0.70325      2.29972      0.97195 *
 * O             123     -2.37224     -0.54469      0.96158 *
 * O             124     -0.17671     -0.00500     -0.77506 *
 * O             125      0.10098     -0.13940     -0.77575 *
 * O             126      0.07697      0.14996     -0.77604 *
 * O             127      0.16421      0.02787      0.82608 *
 * O             128     -0.10113      0.12716      0.82866 *
 * O             129     -0.06028     -0.15181      0.82240 *
 * O             130     -0.10411      0.02366      0.37526 *
 * O             131      0.02224     -0.09378      0.37803 *
 * O             132      0.07804      0.07819      0.37535 *
 * O             133     -1.64863      1.75076     -1.03317 *
 * O             134     -0.68338     -2.28034     -1.03599 *
 * O             135      2.34135      0.55105     -1.02394 *
 * O             136      0.08441     -0.02050     -0.38521 *
 * O             137     -0.02363      0.08119     -0.38598 *
 * O             138     -0.05672     -0.06530     -0.38281 *
 * O             139      1.65844     -1.78473      0.96173 *
 * O             140      0.70264      2.30108      0.97562 *
 * O             141     -2.36510     -0.54872      0.97653 *
 * O             142     -0.16906     -0.01176     -0.77019 *
 * O             143      0.09349     -0.14238     -0.76945 *
 * O             144      0.07511      0.14997     -0.77515 *
 * O             145      0.16504      0.02189      0.82640 *
 * O             146     -0.10114      0.12891      0.81584 *
 * O             147     -0.05675     -0.15126      0.82675 *
 * O             148     -0.10124      0.02753      0.37437 *
 * O             149      0.01808     -0.10260      0.38328 *
 * O             150      0.07941      0.07291      0.37751 *
 * O             151     -1.64978      1.74482     -1.02837 *
 * O             152     -0.69461     -2.29102     -1.02929 *
 * O             153      2.34015      0.55104     -1.02909 *
 * O             154      0.08531     -0.01757     -0.38354 *
 * O             155     -0.02316      0.08184     -0.38657 *
 * O             156     -0.06148     -0.06237     -0.38501 *
 * O             157      1.66189     -1.79362      0.96660 *
 * O             158      0.69446      2.29247      0.96942 *
 * O             159     -2.36066     -0.54161      0.96648 *
 * O             160     -0.16920     -0.00959     -0.77674 *
 * O             161      0.09644     -0.14102     -0.76321 *
 * O             162      0.07279      0.15088     -0.77467 *
 * Al              1      0.00072     -0.00039     -0.03133 *
 * Al              2     -0.00717     -0.00213     -0.86510 *
 * Al              3      0.00726     -0.00980     -1.98359 *
 * Al              4      0.00135      0.00068     -0.24036 *
 * Al              5      0.00035     -0.00002     -0.08171 *
 * Al              6      0.00110      0.00014      0.08402 *
 * Al              7     -0.01542     -0.01706     -7.29487 *
 * Al              8     -0.01077      0.00991      7.29558 *
 * Al              9      0.00030     -0.00022      0.03746 *
 * Al             10      0.00099     -0.00011      0.26127 *
 * Al             11      0.02134     -0.01477      0.86174 *
 * Al             12      0.00372      0.00845      1.97543 *
 * Al             13      0.00036      0.00012     -0.03203 *
 * Al             14     -0.01408     -0.00548     -0.86781 *
 * Al             15      0.00416     -0.00163     -1.96856 *
 * Al             16      0.00076     -0.00016     -0.24090 *
 * Al             17      0.00041     -0.00021     -0.08187 *
 * Al             18      0.00081      0.00029      0.08372 *
 * Al             19     -0.01140      0.00873     -7.29416 *
 * Al             20      0.01173      0.02011      7.29607 *
 * Al             21      0.00074     -0.00002      0.03740 *
 * Al             22      0.00055     -0.00022      0.26108 *
 * Al             23     -0.00109     -0.00660      0.87127 *
 * Al             24      0.00372      0.00598      1.98984 *
 * Al             25      0.00076      0.00005     -0.03143 *
 * Al             26     -0.01877     -0.00234     -0.86122 *
 * Al             27      0.00759     -0.01109     -1.97169 *
 * Al             28      0.00052     -0.00036     -0.24003 *
 * Al             29      0.00059      0.00015     -0.08206 *
 * Al             30      0.00092     -0.00014      0.08372 *
 * Al             31     -0.02368     -0.02198     -7.29217 *
 * Al             32      0.01771      0.03588      7.29508 *
 * Al             33      0.00101     -0.00024      0.03751 *
 * Al             34      0.00127      0.00011      0.26130 *
 * Al             35      0.01854     -0.00280      0.86804 *
 * Al             36     -0.00615      0.01217      1.98144 *
 * Al             37      0.00107      0.00007     -0.03141 *
 * Al             38     -0.02251      0.00757     -0.86759 *
 * Al             39      0.00459     -0.00582     -1.96996 *
 * Al             40      0.00079     -0.00028     -0.24051 *
 * Al             41      0.00067     -0.00011     -0.08191 *
 * Al             42      0.00122     -0.00011      0.08377 *
 * Al             43     -0.02328     -0.01657     -7.29327 *
 * Al             44      0.00431      0.02601      7.29564 *
 * Al             45      0.00072     -0.00038      0.03763 *
 * Al             46      0.00112      0.00011      0.26078 *
 * Al             47      0.02747     -0.00525      0.86754 *
 * Al             48     -0.00140      0.00520      1.98164 *
 * Al             49      0.00069      0.00014     -0.03177 *
 * Al             50      0.00074     -0.00864     -0.86587 *
 * Al             51     -0.00539     -0.01089     -1.97207 *
 * Al             52      0.00087      0.00014     -0.24026 *
 * Al             53      0.00028     -0.00046     -0.08163 *
 * Al             54      0.00135      0.00040      0.08354 *
 * Al             55     -0.00539     -0.00472     -7.29452 *
 * Al             56      0.01700      0.01042      7.29639 *
 * Al             57      0.00096     -0.00022      0.03721 *
 * Al             58      0.00093      0.00056      0.26132 *
 * Al             59      0.00996     -0.00522      0.86385 *
 * Al             60      0.00268      0.00519      1.98114 *
 * Al             61      0.00083      0.00005     -0.03154 *
 * Al             62     -0.01059      0.00591     -0.86648 *
 * Al             63      0.00620     -0.00487     -1.98253 *
 * Al             64      0.00078     -0.00026     -0.24013 *
 * Al             65      0.00007      0.00002     -0.08205 *
 * Al             66      0.00088     -0.00020      0.08333 *
 * Al             67     -0.00412     -0.00147     -7.29358 *
 * Al             68      0.00737      0.00702      7.29568 *
 * Al             69      0.00110      0.00057      0.03732 *
 * Al             70      0.00077     -0.00005      0.26119 *
 * Al             71     -0.00041     -0.01581      0.86807 *
 * Al             72      0.00619      0.01240      1.98577 *
 * Al             73      0.00054      0.00012     -0.03173 *
 * Al             74     -0.01193     -0.01052     -0.86484 *
 * Al             75      0.00911     -0.00303     -1.97502 *
 * Al             76      0.00086      0.00027     -0.24055 *
 * Al             77      0.00042     -0.00018     -0.08129 *
 * Al             78      0.00109      0.00027      0.08345 *
 * Al             79     -0.02888      0.00722     -7.29382 *
 * Al             80      0.01407      0.01984      7.29528 *
 * Al             81      0.00115     -0.00001      0.03739 *
 * Al             82      0.00093     -0.00034      0.26112 *
 * Al             83      0.00809     -0.01187      0.87122 *
 * Al             84      0.00604      0.00338      1.98470 *
 * Al             85      0.00079     -0.00063     -0.03130 *
 * Al             86     -0.00631      0.00982     -0.86890 *
 * Al             87      0.00062     -0.00501     -1.97924 *
 * Al             88      0.00127      0.00039     -0.24077 *
 * Al             89      0.00030     -0.00032     -0.08209 *
 * Al             90      0.00125      0.00021      0.08350 *
 * Al             91     -0.00556     -0.01543     -7.29256 *
 * Al             92      0.02892     -0.00507      7.29520 *
 * Al             93      0.00091     -0.00049      0.03698 *
 * Al             94      0.00146     -0.00021      0.26147 *
 * Al             95      0.00977     -0.00163      0.86761 *
 * Al             96     -0.00381      0.00695      1.97992 *
 * Al             97      0.00104     -0.00036     -0.03154 *
 * Al             98     -0.00572      0.02171     -0.86416 *
 * Al             99      0.00088     -0.00354     -1.98005 *
 * Al            100      0.00165      0.00045     -0.24028 *
 * Al            101      0.00056     -0.00025     -0.08179 *
 * Al            102      0.00109      0.00031      0.08416 *
 * Al            103     -0.00546     -0.02021     -7.29372 *
 * Al            104     -0.00358      0.00576      7.29591 *
 * Al            105      0.00080     -0.00033      0.03757 *
 * Al            106      0.00135     -0.00017      0.26094 *
 * Al            107      0.00727     -0.00136      0.87009 *
 * Al            108     -0.00524      0.00991      1.98251 *
 *                                                          *
 ************************************************************

Writing analysis data to al3x3.castep_bin

Writing model to al3x3.check
 
 A BibTeX formatted list of references used in this run has been written to 
 al3x3.bib
 
Initialisation time =      2.75 s
Calculation time    =    147.42 s
Finalisation time   =      7.19 s
Total time          =    157.36 s
Peak Memory Use     = 802816 kB
  
Overall parallel efficiency rating: Poor (43%)                                  
  
Data was distributed by:-
G-vector (384-way); efficiency rating: Poor (44%)                               
k-point (2-way); efficiency rating: Excellent (97%)                             
  
Parallel notes:
1) Calculation only took 150.2 s, so efficiency estimates may be inaccurate.    
