 DBCSR| CPU Multiplication driver                                           XSMM
 DBCSR| Multrec recursion limit                                              512
 DBCSR| Multiplication stack size                                           1000
 DBCSR| Maximum elements for images                                    UNLIMITED
 DBCSR| Multiplicative factor virtual images                                   1
 DBCSR| Use multiplication densification                                       T
 DBCSR| Multiplication size stacks                                             3
 DBCSR| Number of 3D layers                                               SINGLE
 DBCSR| Use MPI memory allocation                                              T
 DBCSR| Use RMA algorithm                                                      F
 DBCSR| Use Communication thread                                               T
 DBCSR| Communication thread load                                             75


  **** **** ******  **  PROGRAM STARTED AT               2021-06-07 11:17:08.029
 ***** ** ***  *** **   PROGRAM STARTED ON                             nid001105
 **    ****   ******    PROGRAM STARTED BY                                hjudge
 ***** **    ** ** **   PROGRAM PROCESS ID                                186522
  **** **  *******  **  PROGRAM STARTED IN /lus/cls01095/work/z19/z19/hjudge/CP2
                                           K/test/H2O-64-mod/with-pinning

 CP2K| version string:                                          CP2K version 7.1
 CP2K| source code revision number:                                  git:e635599
 CP2K| cp2kflags: omp libint fftw3 libxc elpa parallel mpi3 scalapack xsmm max_c
 CP2K|            ontr=4 plumed2
 CP2K| is freely available from                            https://www.cp2k.org/
 CP2K| Program compiled at                          Mon Oct 19 11:13:37 BST 2020
 CP2K| Program compiled on                                                 uan01
 CP2K| Program compiled for                                              ARCHER2
 CP2K| Data directory path                   /work/y07/shared/cp2k/cp2k-7.1/data
 CP2K| Input file name                                                H2O-64.inp

 GLOBAL| Force Environment number                                              1
 GLOBAL| Basis set file name                                      GTH_BASIS_SETS
 GLOBAL| Potential file name                                           POTENTIAL
 GLOBAL| MM Potential file name                                     MM_POTENTIAL
 GLOBAL| Coordinate file name                                      __STD_INPUT__
 GLOBAL| Method name                                                        CP2K
 GLOBAL| Project name                                                     H2O-64
 GLOBAL| Preferred FFT library                                             FFTW3
 GLOBAL| Preferred diagonalization lib.                                     ELPA
 GLOBAL| Run type                                                             MD
 GLOBAL| All-to-all communication in single precision                          F
 GLOBAL| FFTs using library dependent lengths                                  F
 GLOBAL| Global print level                                                  LOW
 GLOBAL| MPI I/O enabled                                                       T
 GLOBAL| Total number of message passing processes                           128
 GLOBAL| Number of threads for this process                                    4
 GLOBAL| This output is from process                                           0
 GLOBAL| CPU model name                          AMD EPYC 7742 64-Core Processor
 GLOBAL| CPUID                                                              1002

 MEMORY| system memory details [Kb]
 MEMORY|                        rank 0           min           max       average
 MEMORY| MemTotal            263568576     263568576     263568576     263568576
 MEMORY| MemFree             250920904     238729452     251057064     247856392
 MEMORY| Buffers                109556        109556        178940        141461
 MEMORY| Cached                1179964       1179964      11172692       3745422
 MEMORY| Slab                  1833160       1833160       3479248       2273952
 MEMORY| SReclaimable           157096        157096        315560        220670
 MEMORY| MemLikelyFree       252367520     250376444     252625676     251963945


 GENERATE|  Preliminary Number of Bonds generated:                             0
 GENERATE|  Achieved consistency in connectivity generation.

 *******************************************************************************
 *******************************************************************************
 **                                                                           **
 **     #####                         ##              ##                      **
 **    ##   ##            ##          ##              ##                      **
 **   ##     ##                       ##            ######                    **
 **   ##     ##  ##   ##  ##   #####  ##  ##   ####   ##    #####    #####    **
 **   ##     ##  ##   ##  ##  ##      ## ##   ##      ##   ##   ##  ##   ##   **
 **   ##  ## ##  ##   ##  ##  ##      ####     ###    ##   ######   ######    **
 **    ##  ###   ##   ##  ##  ##      ## ##      ##   ##   ##       ##        **
 **     #######   #####   ##   #####  ##  ##  ####    ##    #####   ##        **
 **           ##                                                    ##        **
 **                                                                           **
 **                                                ... make the atoms dance   **
 **                                                                           **
 **            Copyright (C) by CP2K developers group (2000 - 2019)           **
 **                                                                           **
 *******************************************************************************


 TOTAL NUMBERS AND MAXIMUM NUMBERS

  Total number of            - Atomic kinds:                                   2
                             - Atoms:                                        192
                             - Shell sets:                                   384
                             - Shells:                                      1152
                             - Primitive Cartesian functions:               1344
                             - Cartesian basis functions:                   2688
                             - Spherical basis functions:                   2560

  Maximum angular momentum of- Orbital basis functions:                        2
                             - Local part of the GTH pseudopotential:          2
                             - Non-local part of the GTH pseudopotential:      0


 SCF PARAMETERS         Density guess:                                    ATOMIC
                        --------------------------------------------------------
                        max_scf:                                              50
                        max_scf_history:                                       0
                        max_diis:                                              4
                        --------------------------------------------------------
                        eps_scf:                                        1.00E-05
                        eps_scf_history:                                0.00E+00
                        eps_diis:                                       1.00E-01
                        eps_eigval:                                     1.00E-05
                        --------------------------------------------------------
                        level_shift [a.u.]:                                 0.00
                        --------------------------------------------------------
                        No outer SCF

 MD| Molecular Dynamics Protocol 
 MD| Ensemble Type                                                           NVE
 MD| Number of Time Steps                                                     10
 MD| Time Step [fs]                                                         0.50
 MD| Temperature [K]                                                      300.00
 MD| Temperature tolerance [K]                                              0.00
 MD| Print MD information every                                        1 step(s)
 MD| File type     Print frequency[steps]                             File names
 MD| Coordinates            1                                   H2O-64-pos-1.xyz
 MD| Velocities             1                                   H2O-64-vel-1.xyz
 MD| Energies               1                                      H2O-64-1.ener
 MD| Dump                  20                                   H2O-64-1.restart

 ROT| Rotational Analysis Info 
 ROT| Principal axes and moments of inertia in atomic units:
 ROT|                                1                 2                 3
 ROT| EIGENVALUES            0.174175353E+09   0.187507692E+09   0.199545123E+09
 ROT|      X                    -0.734964520       0.242599134       0.633224142
 ROT|      Y                    -0.044883650       0.914361712      -0.402402930
 ROT|      Z                    -0.676618513      -0.324173287      -0.661134682
 ROT| Number of Rotovibrational vectors:     6

 Calculation of degrees of freedom
                                                      Number of atoms:       192
                                 Number of Intramolecular constraints:         0
                                 Number of Intermolecular constraints:         0
                                  Invariants(translation + rotations):         3
                                                   Degrees of freedom:       573


 Restraints Information
                                  Number of Intramolecular restraints:         0
                                  Number of Intermolecular restraints:         0
 ************************** Velocities initialization **************************
 Initial Temperature                                                    300.00 K
 COM velocity:           -0.000000000000     -0.000000000000     -0.000000000000
 *******************************************************************************


 Number of electrons:                                                        512
 Number of occupied orbitals:                                                256
 Number of molecular orbitals:                                               256

 Number of orbital functions:                                               2560
 Number of independent orbital functions:                                   2560

 Extrapolation method: initial_guess


 SCF WAVEFUNCTION OPTIMIZATION

  ----------------------------------- OT ---------------------------------------
  Minimizer      : DIIS                : direct inversion
                                         in the iterative subspace
                                         using   7 DIIS vectors
                                         safer DIIS on
  Preconditioner : FULL_KINETIC        : inversion of T + eS
  Precond_solver : DEFAULT
  stepsize       :    0.15000000                  energy_gap     :    0.20000000
  eps_taylor     :   0.10000E-15                  max_taylor     :             4
  ----------------------------------- OT ---------------------------------------

  Step     Update method      Time    Convergence         Total energy    Change
  ------------------------------------------------------------------------------
     1 OT DIIS     0.15E+00    0.5     0.01332027     -1059.3825086354 -1.06E+03
     2 OT DIIS     0.15E+00    0.1     0.00868183     -1073.0837986870 -1.37E+01
     3 OT DIIS     0.15E+00    0.1     0.00608177     -1082.3329453028 -9.25E+00
     4 OT DIIS     0.15E+00    0.1     0.00420419     -1088.9991950661 -6.67E+00
     5 OT DIIS     0.15E+00    0.1     0.00319228     -1092.5975699473 -3.60E+00
     6 OT DIIS     0.15E+00    0.1     0.00242089     -1095.2728740329 -2.68E+00
     7 OT DIIS     0.15E+00    0.1     0.00180823     -1097.1827113587 -1.91E+00
     8 OT DIIS     0.15E+00    0.1     0.00136563     -1098.4047634830 -1.22E+00
     9 OT DIIS     0.15E+00    0.1     0.00107154     -1099.0957255862 -6.91E-01
    10 OT DIIS     0.15E+00    0.1     0.00085958     -1099.5568480761 -4.61E-01
    11 OT DIIS     0.15E+00    0.1     0.00070902     -1099.8674347814 -3.11E-01
    12 OT DIIS     0.15E+00    0.1     0.00059349     -1100.0778295692 -2.10E-01
    13 OT DIIS     0.15E+00    0.1     0.00050949     -1100.2324066357 -1.55E-01
    14 OT DIIS     0.15E+00    0.1     0.00044833     -1100.3361498733 -1.04E-01
    15 OT DIIS     0.15E+00    0.1     0.00039690     -1100.4341575919 -9.80E-02
    16 OT DIIS     0.15E+00    0.1     0.00035862     -1100.5038829651 -6.97E-02
    17 OT DIIS     0.15E+00    0.1     0.00034534     -1100.5572960102 -5.34E-02
    18 OT DIIS     0.15E+00    0.1     0.00034139     -1100.5793052412 -2.20E-02
    19 OT DIIS     0.15E+00    0.1     0.00033463     -1100.5947747647 -1.55E-02
    20 OT SD       0.15E+00    0.1     0.00033658     -1100.6056259094 -1.09E-02
    21 OT DIIS     0.15E+00    0.1     0.00033500     -1100.6167318134 -1.11E-02
    22 OT DIIS     0.15E+00    0.1     0.00032752     -1100.6181770013 -1.45E-03
    23 OT DIIS     0.15E+00    0.1     0.00032184     -1100.6243784233 -6.20E-03
    24 OT DIIS     0.15E+00    0.1     0.00030944     -1100.6371107281 -1.27E-02
    25 OT SD       0.15E+00    0.1     0.00030022     -1100.6455937723 -8.48E-03
    26 OT DIIS     0.15E+00    0.1     0.00029911     -1100.6544327620 -8.84E-03
    27 OT DIIS     0.15E+00    0.1     0.00028893     -1100.6591651031 -4.73E-03
    28 OT SD       0.15E+00    0.1     0.00028473     -1100.6665449234 -7.38E-03
    29 OT SD       0.15E+00    0.1     0.00028442     -1100.6745059988 -7.96E-03
    30 OT SD       0.15E+00    0.1     0.00028480     -1100.6824615830 -7.96E-03
    31 OT SD       0.15E+00    0.1     0.00028544     -1100.6904429284 -7.98E-03
    32 OT DIIS     0.15E+00    0.1     0.00028617     -1100.6984620163 -8.02E-03
    33 OT SD       0.15E+00    0.1     0.00033211     -1100.7435544698 -4.51E-02
    34 OT SD       0.15E+00    0.1     0.00031462     -1100.7540544103 -1.05E-02
    35 OT SD       0.15E+00    0.1     0.00030588     -1100.7636302758 -9.58E-03
    36 OT SD       0.15E+00    0.1     0.00030057     -1100.7727389546 -9.11E-03
    37 OT SD       0.15E+00    0.1     0.00029679     -1100.7815597227 -8.82E-03
    38 OT SD       0.15E+00    0.1     0.00029367     -1100.7901709575 -8.61E-03
    39 OT DIIS     0.15E+00    0.1     0.00029082     -1100.7986066855 -8.44E-03
    40 OT SD       0.15E+00    0.1     0.00016833     -1100.9875339783 -1.89E-01
    41 OT DIIS     0.15E+00    0.1     0.00014750     -1100.9900984665 -2.56E-03
    42 OT DIIS     0.15E+00    0.1     0.00023356     -1100.9860321891  4.07E-03
    43 OT DIIS     0.15E+00    0.1     0.00017589     -1100.9988983834 -1.29E-02
    44 OT DIIS     0.15E+00    0.1     0.00022227     -1101.0010807323 -2.18E-03
    45 OT DIIS     0.15E+00    0.1     0.00015342     -1101.0160489383 -1.50E-02
    46 OT DIIS     0.15E+00    0.1     0.00005874     -1101.0255694168 -9.52E-03
    47 OT DIIS     0.15E+00    0.1     0.00007361     -1101.0255456256  2.38E-05
    48 OT DIIS     0.15E+00    0.1     0.00005773     -1101.0267770426 -1.23E-03
    49 OT DIIS     0.15E+00    0.1     0.00005383     -1101.0275708711 -7.94E-04
    50 OT DIIS     0.15E+00    0.1     0.00004288     -1101.0287871471 -1.22E-03

  Leaving inner SCF loop after reaching    50 steps.


  Electronic density on regular grids:       -512.0000015466       -0.0000015466
  Core density on regular grids:              512.0000000045        0.0000000045
  Total charge density on r-space grids:       -0.0000015421
  Total charge density g-space grids:          -0.0000015421

  Overlap energy of the core charge distribution:               0.00000562599749
  Self energy of the core charge distribution:              -2805.30499493854950
  Core Hamiltonian energy:                                    825.29378313732423
  Hartree energy:                                            1145.26167488836245
  Exchange-correlation energy:                               -266.27925586023275

  Total energy:                                             -1101.02878714709823

 *** WARNING in qs_scf.F:542 :: SCF run NOT converged ***


 ENERGY| Total FORCE_EVAL ( QS ) energy (a.u.):            -1101.031005888832624


 MD_ENERGIES| Initialization proceeding


 ******************************** GO CP2K GO! **********************************
 INITIAL POTENTIAL ENERGY[hartree]     =                     -0.110103100589E+04
 INITIAL KINETIC ENERGY[hartree]       =                      0.272187778755E+00
 INITIAL TEMPERATURE[K]                =                                 300.000
 INITIAL VOLUME[bohr^3]                =                      0.129095421321E+05
 INITIAL CELL LNTHS[bohr]   =      0.2345868E+02   0.2345868E+02   0.2345868E+02
 INITIAL CELL ANGLS[deg]    =      0.9000000E+02   0.9000000E+02   0.9000000E+02
 ******************************** GO CP2K GO! **********************************

 Number of electrons:                                                        512
 Number of occupied orbitals:                                                256
 Number of molecular orbitals:                                               256

 Number of orbital functions:                                               2560
 Number of independent orbital functions:                                   2560

 Extrapolation method: PS Nth order


 SCF WAVEFUNCTION OPTIMIZATION

  ----------------------------------- OT ---------------------------------------
  Minimizer      : DIIS                : direct inversion
                                         in the iterative subspace
                                         using   7 DIIS vectors
                                         safer DIIS on
  Preconditioner : FULL_KINETIC        : inversion of T + eS
  Precond_solver : DEFAULT
  stepsize       :    0.15000000                  energy_gap     :    0.20000000
  eps_taylor     :   0.10000E-15                  max_taylor     :             4
  ----------------------------------- OT ---------------------------------------

  Step     Update method      Time    Convergence         Total energy    Change
  ------------------------------------------------------------------------------
     1 OT DIIS     0.15E+00    0.1     0.00024950     -1101.0278021260 -1.10E+03
     2 OT DIIS     0.15E+00    0.1     0.00016075     -1101.0327084348 -4.91E-03
     3 OT DIIS     0.15E+00    0.1     0.00009051     -1101.0362859404 -3.58E-03
     4 OT DIIS     0.15E+00    0.1     0.00006200     -1101.0377275198 -1.44E-03
     5 OT DIIS     0.15E+00    0.1     0.00003797     -1101.0386877144 -9.60E-04
     6 OT DIIS     0.15E+00    0.1     0.00002205     -1101.0391017420 -4.14E-04
     7 OT DIIS     0.15E+00    0.1     0.00001260     -1101.0392355422 -1.34E-04
     8 OT DIIS     0.15E+00    0.1     0.00000723     -1101.0392767847 -4.12E-05

  *** SCF run converged in     8 steps ***


  Electronic density on regular grids:       -512.0000014905       -0.0000014905
  Core density on regular grids:              511.9999999975       -0.0000000025
  Total charge density on r-space grids:       -0.0000014931
  Total charge density g-space grids:          -0.0000014931

  Overlap energy of the core charge distribution:               0.00000554074576
  Self energy of the core charge distribution:              -2805.30499493854950
  Core Hamiltonian energy:                                    824.99709644250561
  Hartree energy:                                            1145.47089262750978
  Exchange-correlation energy:                               -266.20227645692876

  Total energy:                                             -1101.03927678471700

 ENERGY| Total FORCE_EVAL ( QS ) energy (a.u.):            -1101.039289567770084


 *******************************************************************************
 ENSEMBLE TYPE                =                                              NVE
 STEP NUMBER                  =                                                1
 TIME [fs]                    =                                         0.500000
 CONSERVED QUANTITY [hartree] =                              -0.110076554067E+04

                                              INSTANTANEOUS             AVERAGES
 CPU TIME [s]                 =                        7.83                 7.83
 ENERGY DRIFT PER ATOM [K]    =         -0.110563239021E+02   0.000000000000E+00
 POTENTIAL ENERGY[hartree]    =         -0.110103928957E+04  -0.110103928957E+04
 KINETIC ENERGY [hartree]     =          0.273748897148E+00   0.273748897148E+00
 TEMPERATURE [K]              =                     301.721              301.721
 *******************************************************************************


 Number of electrons:                                                        512
 Number of occupied orbitals:                                                256
 Number of molecular orbitals:                                               256

 Number of orbital functions:                                               2560
 Number of independent orbital functions:                                   2560

 Extrapolation method: PS Nth order


 SCF WAVEFUNCTION OPTIMIZATION

  ----------------------------------- OT ---------------------------------------
  Minimizer      : DIIS                : direct inversion
                                         in the iterative subspace
                                         using   7 DIIS vectors
                                         safer DIIS on
  Preconditioner : FULL_KINETIC        : inversion of T + eS
  Precond_solver : DEFAULT
  stepsize       :    0.15000000                  energy_gap     :    0.20000000
  eps_taylor     :   0.10000E-15                  max_taylor     :             4
  ----------------------------------- OT ---------------------------------------

  Step     Update method      Time    Convergence         Total energy    Change
  ------------------------------------------------------------------------------
     1 OT DIIS     0.15E+00    0.1     0.00018188     -1101.0453203603 -1.10E+03
     2 OT DIIS     0.15E+00    0.1     0.00012504     -1101.0480047349 -2.68E-03
     3 OT DIIS     0.15E+00    0.1     0.00007518     -1101.0503824746 -2.38E-03
     4 OT DIIS     0.15E+00    0.1     0.00005150     -1101.0514775398 -1.10E-03
     5 OT DIIS     0.15E+00    0.1     0.00002882     -1101.0522243275 -7.47E-04
     6 OT DIIS     0.15E+00    0.1     0.00001713     -1101.0524515200 -2.27E-04
     7 OT DIIS     0.15E+00    0.1     0.00000972     -1101.0525297399 -7.82E-05

  *** SCF run converged in     7 steps ***


  Electronic density on regular grids:       -512.0000014194       -0.0000014194
  Core density on regular grids:              511.9999999954       -0.0000000046
  Total charge density on r-space grids:       -0.0000014240
  Total charge density g-space grids:          -0.0000014240

  Overlap energy of the core charge distribution:               0.00000508717596
  Self energy of the core charge distribution:              -2805.30499493854950
  Core Hamiltonian energy:                                    823.99099462384333
  Hartree energy:                                            1146.19319039099810
  Exchange-correlation energy:                               -265.93172490334473

  Total energy:                                             -1101.05252973987695

 ENERGY| Total FORCE_EVAL ( QS ) energy (a.u.):            -1101.052553911873019


 *******************************************************************************
 ENSEMBLE TYPE                =                                              NVE
 STEP NUMBER                  =                                                2
 TIME [fs]                    =                                         1.000000
 CONSERVED QUANTITY [hartree] =                              -0.110076574941E+04

                                              INSTANTANEOUS             AVERAGES
 CPU TIME [s]                 =                        0.78                 4.31
 ENERGY DRIFT PER ATOM [K]    =         -0.113996295573E+02  -0.569981477863E+01
 POTENTIAL ENERGY[hartree]    =         -0.110105255391E+04  -0.110104592174E+04
 KINETIC ENERGY [hartree]     =          0.286804501612E+00   0.280276699380E+00
 TEMPERATURE [K]              =                     316.110              308.915
 *******************************************************************************


 Number of electrons:                                                        512
 Number of occupied orbitals:                                                256
 Number of molecular orbitals:                                               256

 Number of orbital functions:                                               2560
 Number of independent orbital functions:                                   2560

 Extrapolation method: PS Nth order


 SCF WAVEFUNCTION OPTIMIZATION

  ----------------------------------- OT ---------------------------------------
  Minimizer      : DIIS                : direct inversion
                                         in the iterative subspace
                                         using   7 DIIS vectors
                                         safer DIIS on
  Preconditioner : FULL_KINETIC        : inversion of T + eS
  Precond_solver : DEFAULT
  stepsize       :    0.15000000                  energy_gap     :    0.20000000
  eps_taylor     :   0.10000E-15                  max_taylor     :             4
  ----------------------------------- OT ---------------------------------------

  Step     Update method      Time    Convergence         Total energy    Change
  ------------------------------------------------------------------------------
     1 OT DIIS     0.15E+00    0.1     0.00016600     -1101.0673391766 -1.10E+03
     2 OT DIIS     0.15E+00    0.1     0.00011756     -1101.0696099927 -2.27E-03
     3 OT DIIS     0.15E+00    0.1     0.00007011     -1101.0718400828 -2.23E-03
     4 OT DIIS     0.15E+00    0.1     0.00004687     -1101.0728158232 -9.76E-04
     5 OT DIIS     0.15E+00    0.1     0.00002506     -1101.0734352383 -6.19E-04
     6 OT DIIS     0.15E+00    0.1     0.00001527     -1101.0735929560 -1.58E-04
     7 OT DIIS     0.15E+00    0.1     0.00000857     -1101.0736544830 -6.15E-05

  *** SCF run converged in     7 steps ***


  Electronic density on regular grids:       -512.0000013333       -0.0000013333
  Core density on regular grids:              511.9999999979       -0.0000000021
  Total charge density on r-space grids:       -0.0000013354
  Total charge density g-space grids:          -0.0000013354

  Overlap energy of the core charge distribution:               0.00000421676033
  Self energy of the core charge distribution:              -2805.30499493854950
  Core Hamiltonian energy:                                    822.43891672543191
  Hartree energy:                                            1147.30180967807109
  Exchange-correlation energy:                               -265.50939016470653

  Total energy:                                             -1101.07365448299265

 ENERGY| Total FORCE_EVAL ( QS ) energy (a.u.):            -1101.073673410228821


 *******************************************************************************
 ENSEMBLE TYPE                =                                              NVE
 STEP NUMBER                  =                                                3
 TIME [fs]                    =                                         1.500000
 CONSERVED QUANTITY [hartree] =                              -0.110076623800E+04

                                              INSTANTANEOUS             AVERAGES
 CPU TIME [s]                 =                        0.80                 3.14
 ENERGY DRIFT PER ATOM [K]    =         -0.122031986212E+02  -0.786760939283E+01
 POTENTIAL ENERGY[hartree]    =         -0.110107367341E+04  -0.110105517230E+04
 KINETIC ENERGY [hartree]     =          0.307435407039E+00   0.289329601933E+00
 TEMPERATURE [K]              =                     338.849              318.893
 *******************************************************************************


 Number of electrons:                                                        512
 Number of occupied orbitals:                                                256
 Number of molecular orbitals:                                               256

 Number of orbital functions:                                               2560
 Number of independent orbital functions:                                   2560

 Extrapolation method: PS Nth order


 SCF WAVEFUNCTION OPTIMIZATION

  ----------------------------------- OT ---------------------------------------
  Minimizer      : DIIS                : direct inversion
                                         in the iterative subspace
                                         using   7 DIIS vectors
                                         safer DIIS on
  Preconditioner : FULL_KINETIC        : inversion of T + eS
  Precond_solver : DEFAULT
  stepsize       :    0.15000000                  energy_gap     :    0.20000000
  eps_taylor     :   0.10000E-15                  max_taylor     :             4
  ----------------------------------- OT ---------------------------------------

  Step     Update method      Time    Convergence         Total energy    Change
  ------------------------------------------------------------------------------
     1 OT DIIS     0.15E+00    0.1     0.00016901     -1101.0882805768 -1.10E+03
     2 OT DIIS     0.15E+00    0.1     0.00012004     -1101.0906385620 -2.36E-03
     3 OT DIIS     0.15E+00    0.1     0.00006991     -1101.0929758701 -2.34E-03
     4 OT DIIS     0.15E+00    0.1     0.00004370     -1101.0939496869 -9.74E-04
     5 OT DIIS     0.15E+00    0.1     0.00002172     -1101.0944515116 -5.02E-04
     6 OT DIIS     0.15E+00    0.1     0.00001364     -1101.0945537894 -1.02E-04
     7 OT DIIS     0.15E+00    0.1     0.00000750     -1101.0946004843 -4.67E-05

  *** SCF run converged in     7 steps ***


  Electronic density on regular grids:       -512.0000012177       -0.0000012177
  Core density on regular grids:              512.0000000002        0.0000000002
  Total charge density on r-space grids:       -0.0000012176
  Total charge density g-space grids:          -0.0000012176

  Overlap energy of the core charge distribution:               0.00000308048317
  Self energy of the core charge distribution:              -2805.30499493854950
  Core Hamiltonian energy:                                    820.48664247915212
  Hartree energy:                                            1148.70443626897759
  Exchange-correlation energy:                               -264.98068737438581

  Total energy:                                             -1101.09460048432243

 ENERGY| Total FORCE_EVAL ( QS ) energy (a.u.):            -1101.094614862853405


 *******************************************************************************
 ENSEMBLE TYPE                =                                              NVE
 STEP NUMBER                  =                                                4
 TIME [fs]                    =                                         2.000000
 CONSERVED QUANTITY [hartree] =                              -0.110076681835E+04

                                              INSTANTANEOUS             AVERAGES
 CPU TIME [s]                 =                        0.77                 2.54
 ENERGY DRIFT PER ATOM [K]    =         -0.131576705049E+02  -0.919012467085E+01
 POTENTIAL ENERGY[hartree]    =         -0.110109461486E+04  -0.110106503294E+04
 KINETIC ENERGY [hartree]     =          0.327796513512E+00   0.298946329828E+00
 TEMPERATURE [K]              =                     361.291              329.493
 *******************************************************************************


 Number of electrons:                                                        512
 Number of occupied orbitals:                                                256
 Number of molecular orbitals:                                               256

 Number of orbital functions:                                               2560
 Number of independent orbital functions:                                   2560

 Extrapolation method: PS Nth order


 SCF WAVEFUNCTION OPTIMIZATION

  ----------------------------------- OT ---------------------------------------
  Minimizer      : DIIS                : direct inversion
                                         in the iterative subspace
                                         using   7 DIIS vectors
                                         safer DIIS on
  Preconditioner : FULL_KINETIC        : inversion of T + eS
  Precond_solver : DEFAULT
  stepsize       :    0.15000000                  energy_gap     :    0.20000000
  eps_taylor     :   0.10000E-15                  max_taylor     :             4
  ----------------------------------- OT ---------------------------------------

  Step     Update method      Time    Convergence         Total energy    Change
  ------------------------------------------------------------------------------
     1 OT DIIS     0.15E+00    0.1     0.00006426     -1101.1044107587 -1.10E+03
     2 OT DIIS     0.15E+00    0.1     0.00005316     -1101.1047785953 -3.68E-04
     3 OT DIIS     0.15E+00    0.1     0.00003233     -1101.1054482933 -6.70E-04
     4 OT DIIS     0.15E+00    0.1     0.00002194     -1101.1057147469 -2.66E-04
     5 OT DIIS     0.15E+00    0.1     0.00001212     -1101.1058730821 -1.58E-04
     6 OT DIIS     0.15E+00    0.1     0.00000783     -1101.1059135917 -4.05E-05

  *** SCF run converged in     6 steps ***


  Electronic density on regular grids:       -512.0000010688       -0.0000010688
  Core density on regular grids:              511.9999999989       -0.0000000011
  Total charge density on r-space grids:       -0.0000010699
  Total charge density g-space grids:          -0.0000010699

  Overlap energy of the core charge distribution:               0.00000200945098
  Self energy of the core charge distribution:              -2805.30499493854950
  Core Hamiltonian energy:                                    818.39013702352668
  Hartree energy:                                            1150.21806280680403
  Exchange-correlation energy:                               -264.40912049292137

  Total energy:                                             -1101.10591359168939

 ENERGY| Total FORCE_EVAL ( QS ) energy (a.u.):            -1101.105932126503831


 *******************************************************************************
 ENSEMBLE TYPE                =                                              NVE
 STEP NUMBER                  =                                                5
 TIME [fs]                    =                                         2.500000
 CONSERVED QUANTITY [hartree] =                              -0.110076715531E+04

                                              INSTANTANEOUS             AVERAGES
 CPU TIME [s]                 =                        0.67                 2.17
 ENERGY DRIFT PER ATOM [K]    =         -0.137118612523E+02  -0.100944719872E+02
 POTENTIAL ENERGY[hartree]    =         -0.110110593213E+04  -0.110107321278E+04
 KINETIC ENERGY [hartree]     =          0.338776813368E+00   0.306912426536E+00
 TEMPERATURE [K]              =                     373.393              338.273
 *******************************************************************************


 Number of electrons:                                                        512
 Number of occupied orbitals:                                                256
 Number of molecular orbitals:                                               256

 Number of orbital functions:                                               2560
 Number of independent orbital functions:                                   2560

 Extrapolation method: PS Nth order


 SCF WAVEFUNCTION OPTIMIZATION

  ----------------------------------- OT ---------------------------------------
  Minimizer      : DIIS                : direct inversion
                                         in the iterative subspace
                                         using   7 DIIS vectors
                                         safer DIIS on
  Preconditioner : FULL_KINETIC        : inversion of T + eS
  Precond_solver : DEFAULT
  stepsize       :    0.15000000                  energy_gap     :    0.20000000
  eps_taylor     :   0.10000E-15                  max_taylor     :             4
  ----------------------------------- OT ---------------------------------------

  Step     Update method      Time    Convergence         Total energy    Change
  ------------------------------------------------------------------------------
     1 OT DIIS     0.15E+00    0.1     0.00004706     -1101.1011338470 -1.10E+03
     2 OT DIIS     0.15E+00    0.1     0.00003814     -1101.1013292817 -1.95E-04
     3 OT DIIS     0.15E+00    0.1     0.00002079     -1101.1016568551 -3.28E-04
     4 OT DIIS     0.15E+00    0.1     0.00001223     -1101.1017643299 -1.07E-04
     5 OT DIIS     0.15E+00    0.1     0.00000730     -1101.1018023287 -3.80E-05

  *** SCF run converged in     5 steps ***


  Electronic density on regular grids:       -512.0000009008       -0.0000009008
  Core density on regular grids:              511.9999999941       -0.0000000059
  Total charge density on r-space grids:       -0.0000009067
  Total charge density g-space grids:          -0.0000009067

  Overlap energy of the core charge distribution:               0.00000123724772
  Self energy of the core charge distribution:              -2805.30499493854950
  Core Hamiltonian energy:                                    816.35636903919442
  Hartree energy:                                            1151.70037347701918
  Exchange-correlation energy:                               -263.85355114365547

  Total energy:                                             -1101.10180232874359

 ENERGY| Total FORCE_EVAL ( QS ) energy (a.u.):            -1101.101815171089584


 *******************************************************************************
 ENSEMBLE TYPE                =                                              NVE
 STEP NUMBER                  =                                                6
 TIME [fs]                    =                                         3.000000
 CONSERVED QUANTITY [hartree] =                              -0.110076702437E+04

                                              INSTANTANEOUS             AVERAGES
 CPU TIME [s]                 =                        0.58                 1.90
 ENERGY DRIFT PER ATOM [K]    =         -0.134964999349E+02  -0.106614766451E+02
 POTENTIAL ENERGY[hartree]    =         -0.110110181517E+04  -0.110107797984E+04
 KINETIC ENERGY [hartree]     =          0.334790803782E+00   0.311558822743E+00
 TEMPERATURE [K]              =                     369.000              343.394
 *******************************************************************************


 Number of electrons:                                                        512
 Number of occupied orbitals:                                                256
 Number of molecular orbitals:                                               256

 Number of orbital functions:                                               2560
 Number of independent orbital functions:                                   2560

 Extrapolation method: PS Nth order


 SCF WAVEFUNCTION OPTIMIZATION

  ----------------------------------- OT ---------------------------------------
  Minimizer      : DIIS                : direct inversion
                                         in the iterative subspace
                                         using   7 DIIS vectors
                                         safer DIIS on
  Preconditioner : FULL_KINETIC        : inversion of T + eS
  Precond_solver : DEFAULT
  stepsize       :    0.15000000                  energy_gap     :    0.20000000
  eps_taylor     :   0.10000E-15                  max_taylor     :             4
  ----------------------------------- OT ---------------------------------------

  Step     Update method      Time    Convergence         Total energy    Change
  ------------------------------------------------------------------------------
     1 OT DIIS     0.15E+00    0.1     0.00004011     -1101.0829341795 -1.10E+03
     2 OT DIIS     0.15E+00    0.1     0.00003295     -1101.0830774902 -1.43E-04
     3 OT DIIS     0.15E+00    0.1     0.00001490     -1101.0833518520 -2.74E-04
     4 OT DIIS     0.15E+00    0.1     0.00000897     -1101.0834070937 -5.52E-05

  *** SCF run converged in     4 steps ***


  Electronic density on regular grids:       -512.0000007415       -0.0000007415
  Core density on regular grids:              511.9999999906       -0.0000000094
  Total charge density on r-space grids:       -0.0000007508
  Total charge density g-space grids:          -0.0000007508

  Overlap energy of the core charge distribution:               0.00000077877945
  Self energy of the core charge distribution:              -2805.30499493854950
  Core Hamiltonian energy:                                    814.58618706628579
  Hartree energy:                                            1153.00177254494679
  Exchange-correlation energy:                               -263.36637254517245

  Total energy:                                             -1101.08340709371009

 ENERGY| Total FORCE_EVAL ( QS ) energy (a.u.):            -1101.083423173482061


 *******************************************************************************
 ENSEMBLE TYPE                =                                              NVE
 STEP NUMBER                  =                                                7
 TIME [fs]                    =                                         3.500000
 CONSERVED QUANTITY [hartree] =                              -0.110076647587E+04

                                              INSTANTANEOUS             AVERAGES
 CPU TIME [s]                 =                        0.50                 1.70
 ENERGY DRIFT PER ATOM [K]    =         -0.125944112006E+02  -0.109376101530E+02
 POTENTIAL ENERGY[hartree]    =         -0.110108342317E+04  -0.110107875746E+04
 KINETIC ENERGY [hartree]     =          0.316947301876E+00   0.312328605477E+00
 TEMPERATURE [K]              =                     349.333              344.242
 *******************************************************************************


 Number of electrons:                                                        512
 Number of occupied orbitals:                                                256
 Number of molecular orbitals:                                               256

 Number of orbital functions:                                               2560
 Number of independent orbital functions:                                   2560

 Extrapolation method: PS Nth order


 SCF WAVEFUNCTION OPTIMIZATION

  ----------------------------------- OT ---------------------------------------
  Minimizer      : DIIS                : direct inversion
                                         in the iterative subspace
                                         using   7 DIIS vectors
                                         safer DIIS on
  Preconditioner : FULL_KINETIC        : inversion of T + eS
  Precond_solver : DEFAULT
  stepsize       :    0.15000000                  energy_gap     :    0.20000000
  eps_taylor     :   0.10000E-15                  max_taylor     :             4
  ----------------------------------- OT ---------------------------------------

  Step     Update method      Time    Convergence         Total energy    Change
  ------------------------------------------------------------------------------
     1 OT DIIS     0.15E+00    0.1     0.00003934     -1101.0575992328 -1.10E+03
     2 OT DIIS     0.15E+00    0.1     0.00003220     -1101.0577371550 -1.38E-04
     3 OT DIIS     0.15E+00    0.1     0.00001302     -1101.0580145204 -2.77E-04
     4 OT DIIS     0.15E+00    0.1     0.00000937     -1101.0580508187 -3.63E-05

  *** SCF run converged in     4 steps ***


  Electronic density on regular grids:       -512.0000006088       -0.0000006088
  Core density on regular grids:              511.9999999927       -0.0000000073
  Total charge density on r-space grids:       -0.0000006162
  Total charge density g-space grids:          -0.0000006162

  Overlap energy of the core charge distribution:               0.00000054143075
  Self energy of the core charge distribution:              -2805.30499493854950
  Core Hamiltonian energy:                                    813.21035129812185
  Hartree energy:                                            1154.02258435859767
  Exchange-correlation energy:                               -262.98599207825094

  Total energy:                                             -1101.05805081865014

 ENERGY| Total FORCE_EVAL ( QS ) energy (a.u.):            -1101.058072635289136


 *******************************************************************************
 ENSEMBLE TYPE                =                                              NVE
 STEP NUMBER                  =                                                8
 TIME [fs]                    =                                         4.000000
 CONSERVED QUANTITY [hartree] =                              -0.110076580471E+04

                                              INSTANTANEOUS             AVERAGES
 CPU TIME [s]                 =                        0.49                 1.55
 ENERGY DRIFT PER ATOM [K]    =         -0.114905722259E+02  -0.110067304121E+02
 POTENTIAL ENERGY[hartree]    =         -0.110105807264E+04  -0.110107617186E+04
 KINETIC ENERGY [hartree]     =          0.292267929290E+00   0.309821020953E+00
 TEMPERATURE [K]              =                     322.132              341.479
 *******************************************************************************


 Number of electrons:                                                        512
 Number of occupied orbitals:                                                256
 Number of molecular orbitals:                                               256

 Number of orbital functions:                                               2560
 Number of independent orbital functions:                                   2560

 Extrapolation method: PS Nth order


 SCF WAVEFUNCTION OPTIMIZATION

  ----------------------------------- OT ---------------------------------------
  Minimizer      : DIIS                : direct inversion
                                         in the iterative subspace
                                         using   7 DIIS vectors
                                         safer DIIS on
  Preconditioner : FULL_KINETIC        : inversion of T + eS
  Precond_solver : DEFAULT
  stepsize       :    0.15000000                  energy_gap     :    0.20000000
  eps_taylor     :   0.10000E-15                  max_taylor     :             4
  ----------------------------------- OT ---------------------------------------

  Step     Update method      Time    Convergence         Total energy    Change
  ------------------------------------------------------------------------------
     1 OT DIIS     0.15E+00    0.1     0.00004063     -1101.0348903338 -1.10E+03
     2 OT DIIS     0.15E+00    0.1     0.00003307     -1101.0350368210 -1.46E-04
     3 OT DIIS     0.15E+00    0.1     0.00001525     -1101.0353096156 -2.73E-04
     4 OT DIIS     0.15E+00    0.1     0.00001093     -1101.0353590077 -4.94E-05
     5 OT DIIS     0.15E+00    0.1     0.00000786     -1101.0353880637 -2.91E-05

  *** SCF run converged in     5 steps ***


  Electronic density on regular grids:       -512.0000004818       -0.0000004818
  Core density on regular grids:              511.9999999968       -0.0000000032
  Total charge density on r-space grids:       -0.0000004851
  Total charge density g-space grids:          -0.0000004851

  Overlap energy of the core charge distribution:               0.00000043858939
  Self energy of the core charge distribution:              -2805.30499493854950
  Core Hamiltonian energy:                                    812.31303150719521
  Hartree energy:                                            1154.69416732903460
  Exchange-correlation energy:                               -262.73759239993285

  Total energy:                                             -1101.03538806366305

 ENERGY| Total FORCE_EVAL ( QS ) energy (a.u.):            -1101.035410328175431


 *******************************************************************************
 ENSEMBLE TYPE                =                                              NVE
 STEP NUMBER                  =                                                9
 TIME [fs]                    =                                         4.500000
 CONSERVED QUANTITY [hartree] =                              -0.110076529419E+04

                                              INSTANTANEOUS             AVERAGES
 CPU TIME [s]                 =                        0.59                 1.44
 ENERGY DRIFT PER ATOM [K]    =         -0.106509448158E+02  -0.109671986792E+02
 POTENTIAL ENERGY[hartree]    =         -0.110103541033E+04  -0.110107164280E+04
 KINETIC ENERGY [hartree]     =          0.270116139609E+00   0.305409367471E+00
 TEMPERATURE [K]              =                     297.717              336.616
 *******************************************************************************


 Number of electrons:                                                        512
 Number of occupied orbitals:                                                256
 Number of molecular orbitals:                                               256

 Number of orbital functions:                                               2560
 Number of independent orbital functions:                                   2560

 Extrapolation method: PS Nth order


 SCF WAVEFUNCTION OPTIMIZATION

  ----------------------------------- OT ---------------------------------------
  Minimizer      : DIIS                : direct inversion
                                         in the iterative subspace
                                         using   7 DIIS vectors
                                         safer DIIS on
  Preconditioner : FULL_KINETIC        : inversion of T + eS
  Precond_solver : DEFAULT
  stepsize       :    0.15000000                  energy_gap     :    0.20000000
  eps_taylor     :   0.10000E-15                  max_taylor     :             4
  ----------------------------------- OT ---------------------------------------

  Step     Update method      Time    Convergence         Total energy    Change
  ------------------------------------------------------------------------------
     1 OT DIIS     0.15E+00    0.1     0.00004272     -1101.0227184493 -1.10E+03
     2 OT DIIS     0.15E+00    0.1     0.00003547     -1101.0228815316 -1.63E-04
     3 OT DIIS     0.15E+00    0.1     0.00001954     -1101.0231905365 -3.09E-04
     4 OT DIIS     0.15E+00    0.1     0.00001351     -1101.0232865632 -9.60E-05
     5 OT DIIS     0.15E+00    0.1     0.00000909     -1101.0233423605 -5.58E-05

  *** SCF run converged in     5 steps ***


  Electronic density on regular grids:       -512.0000003316       -0.0000003316
  Core density on regular grids:              511.9999999981       -0.0000000019
  Total charge density on r-space grids:       -0.0000003335
  Total charge density g-space grids:          -0.0000003335

  Overlap energy of the core charge distribution:               0.00000042270338
  Self energy of the core charge distribution:              -2805.30499493854950
  Core Hamiltonian energy:                                    811.91272299864966
  Hartree energy:                                            1154.99784984066127
  Exchange-correlation energy:                               -262.62892068399879

  Total energy:                                             -1101.02334236053366

 ENERGY| Total FORCE_EVAL ( QS ) energy (a.u.):            -1101.023374985763439


 *******************************************************************************
 ENSEMBLE TYPE                =                                              NVE
 STEP NUMBER                  =                                               10
 TIME [fs]                    =                                         5.000000
 CONSERVED QUANTITY [hartree] =                              -0.110076505584E+04

                                              INSTANTANEOUS             AVERAGES
 CPU TIME [s]                 =                        0.59                 1.36
 ENERGY DRIFT PER ATOM [K]    =         -0.102589393731E+02  -0.108963727486E+02
 POTENTIAL ENERGY[hartree]    =         -0.110102337499E+04  -0.110106681602E+04
 KINETIC ENERGY [hartree]     =          0.258319147697E+00   0.300700345493E+00
 TEMPERATURE [K]              =                     284.714              331.426
 *******************************************************************************


 -------------------------------------------------------------------------------
 -                                                                             -
 -                                DBCSR STATISTICS                             -
 -                                                                             -
 -------------------------------------------------------------------------------
 COUNTER                                    TOTAL       BLAS       SMM       ACC
 flops     9 x    32 x    32            207618048       0.0%    100.0%      0.0%
 flops    22 x    32 x    32            253755392       0.0%    100.0%      0.0%
 flops    36 x    32 x    32           2444230656       0.0%    100.0%      0.0%
 flops    40 x    32 x    32           2715811840       0.0%    100.0%      0.0%
 flops    62 x    32 x    32           4209508352       0.0%    100.0%      0.0%
 flops    36 x    32 x   160           5615124480       0.0%    100.0%      0.0%
 flops    40 x    32 x   160           6239027200       0.0%    100.0%      0.0%
 flops    93 x    32 x    32           6314262528       0.0%    100.0%      0.0%
 flops   102 x    32 x    32           6925320192       0.0%    100.0%      0.0%
 flops    58 x    32 x    32           7875854336       0.0%    100.0%      0.0%
 flops    67 x    32 x    32           9097969664       0.0%    100.0%      0.0%
 flops    62 x    32 x   160           9670492160       0.0%    100.0%      0.0%
 flops    93 x    32 x   160          14505738240       0.0%    100.0%      0.0%
 flops   102 x    32 x   160          15909519360       0.0%    100.0%      0.0%
 flops    58 x    32 x   160          18093178880       0.0%    100.0%      0.0%
 flops    67 x    32 x   160          20900741120       0.0%    100.0%      0.0%
 flops    89 x    32 x    32          24170725376       0.0%    100.0%      0.0%
 flops    32 x    32 x    32          26877100032       0.0%    100.0%      0.0%
 flops    71 x    32 x    32          28923396096       0.0%    100.0%      0.0%
 flops    80 x    32 x    32          38021365760       0.0%    100.0%      0.0%
 flops     9 x     9 x    32          44168260608       0.0%    100.0%      0.0%
 flops    22 x     9 x    32          53835724800       0.0%    100.0%      0.0%
 flops     9 x    22 x    32          53885500416       0.0%    100.0%      0.0%
 flops    89 x    32 x   160          55527342080       0.0%    100.0%      0.0%
 flops    71 x    32 x   160          66445639680       0.0%    100.0%      0.0%
 flops    22 x    22 x    32          67007283200       0.0%    100.0%      0.0%
 flops    80 x    32 x   160          87346380800       0.0%    100.0%      0.0%
 flops    32 x    32 x   160         141264158720       0.0%    100.0%      0.0%
 flops     9 x    32 x     9         185405884416       0.0%    100.0%      0.0%
 flops    22 x    32 x     9         227871249408       0.0%    100.0%      0.0%
 flops     9 x    32 x    22         227871249408       0.0%    100.0%      0.0%
 flops    22 x    32 x    22         279130931200       0.0%    100.0%      0.0%
 flops inhomo. stacks                142158069760     100.0%      0.0%      0.0%
 flops total                         1.880888E+12       7.6%     92.4%      0.0%
 flops max/rank                     31.378554E+09      11.1%     88.9%      0.0%
 matmuls inhomo. stacks                    290304     100.0%      0.0%      0.0%
 matmuls total                          102331192       0.3%     99.7%      0.0%
 number of processed stacks               8885288       3.3%     96.7%      0.0%
 average stack size                                     1.0      11.9       0.0
 marketing flops                     2.107587E+12
 -------------------------------------------------------------------------------
 # multiplications                           2286
 max memory usage/rank             187.154432E+06
 # max total images/rank                        2
 # max 3D layers                                1
 # MPI messages exchanged                 8485632
 MPI messages size (bytes):
  total size                       440.033739E+09
  min size                           0.000000E+00
  max size                         409.600000E+03
  average size                      51.856332E+03
 MPI breakdown and total messages size (bytes):
             size <=      128             4080984                        0
       128 < size <=     8192             1360488              11145117696
      8192 < size <=    32768                   0                        0
     32768 < size <=   131072             2287680             119616307200
    131072 < size <=  4194304              756480             309275872320
   4194304 < size <= 16777216                   0                        0
  16777216 < size                               0                        0
 -------------------------------------------------------------------------------

 *** WARNING in dbcsr_mm.F:295 :: Using a non-square number of MPI ranks ***
 *** might lead to poor performance. Used ranks: 128 Suggested: 121 256  ***

 -------------------------------------------------------------------------------
 -                                                                             -
 -                      DBCSR MESSAGE PASSING PERFORMANCE                      -
 -                                                                             -
 -------------------------------------------------------------------------------
 ROUTINE             CALLS      AVE VOLUME [Bytes]
 MP_Group              154
 MP_Bcast               33                     12.
 MP_Allreduce        12205                     16.
 MP_Alltoall          8655                  30884.
 MP_Wait            256032
 MP_ISend           143578                  27092.
 MP_IRecv           143034                  26582.
 MP_Memory          109906
 -------------------------------------------------------------------------------

 MEMORY| Estimated peak process memory [MiB]                                 179

 -------------------------------------------------------------------------------
 -                                                                             -
 -                         MESSAGE PASSING PERFORMANCE                         -
 -                                                                             -
 -------------------------------------------------------------------------------

 ROUTINE             CALLS      AVE VOLUME [Bytes]
 MP_Group                4
 MP_Bcast             3633                  63236.
 MP_Allreduce         9791                    324.
 MP_Sync              1432
 MP_Alltoall          2105               27406193.
 MP_ISendRecv        60452                   4040.
 MP_Wait             74480
 MP_ISend            19630                  43715.
 MP_IRecv            19630                  43715.
 -------------------------------------------------------------------------------


 -------------------------------------------------------------------------------
 -                                                                             -
 -                           R E F E R E N C E S                               -
 -                                                                             -
 -------------------------------------------------------------------------------
 
 CP2K version 7.1, the CP2K developers group (2019).
 CP2K is freely available from https://www.cp2k.org/ .

 Schuett, Ole; Messmer, Peter; Hutter, Juerg; VandeVondele, Joost. 
 Electronic Structure Calculations on Graphics Processing Units, John
 Wiley & Sons, Ltd, 173-190 (2016). 
 GPU-Accelerated Sparse Matrix-Matrix Multiplication for
 Linear Scaling Density Functional Theory.
 https://dx.doi.org/10.1002/9781118670712.ch8

 Borstnik, U; VandeVondele, J; Weber, V; Hutter, J. 
 PARALLEL COMPUTING, 40 (5-6), 47-58 (2014). 
 Sparse matrix multiplication: The distributed block-compressed sparse
 row library.
 https://dx.doi.org/10.1016/j.parco.2014.03.012

 Hutter, J; Iannuzzi, M; Schiffmann, F; VandeVondele, J. 
 WIREs Comput Mol Sci., 4 (1), 15-25 (2014). 
 CP2K: atomistic simulations of condensed matter systems.
 https://dx.doi.org/10.1002/wcms.1159

 Marek, A; Blum, V; Johanni, R; Havu, V; Lang, B; Auckenthaler, T;
 Heinecke, A; Bungartz, H; Lederer, H. 
 Journal of Physics: Condensed Matter, 26 (21), (2014). 
 The ELPA library: scalable parallel eigenvalue solutions for
 electronic structure
 theory and computational science.
 https://dx.doi.org/10.1088/0953-8984/26/21/213201

 Krack, M. 
 THEORETICAL CHEMISTRY ACCOUNTS, 114 (1-3), 145-152 (2005). 
 Pseudopotentials for H to Kr optimized for gradient-corrected
 exchange-correlation functionals.
 https://dx.doi.org/10.1007/s00214-005-0655-y

 VandeVondele, J; Krack, M; Mohamed, F; Parrinello, M; Chassaing, T;
 Hutter, J. COMPUTER PHYSICS COMMUNICATIONS, 167 (2), 103-128 (2005). 
 QUICKSTEP: Fast and accurate density functional calculations using a
 mixed Gaussian and plane waves approach.
 https://dx.doi.org/10.1016/j.cpc.2004.12.014

 Frigo, M; Johnson, SG. 
 PROCEEDINGS OF THE IEEE, 93 (2), 216-231 (2005). 
 The design and implementation of FFTW3.
 https://dx.doi.org/10.1109/JPROC.2004.840301

 VandeVondele, J; Hutter, J. 
 JOURNAL OF CHEMICAL PHYSICS, 118 (10), 4365-4369 (2003). 
 An efficient orbital transformation method for electronic structure
 calculations.
 https://dx.doi.org/10.1063/1.1543154

 Hartwigsen, C; Goedecker, S; Hutter, J. 
 PHYSICAL REVIEW B, 58 (7), 3641-3662 (1998). 
 Relativistic separable dual-space Gaussian pseudopotentials from H to Rn.
 https://dx.doi.org/10.1103/PhysRevB.58.3641

 Lippert, G; Hutter, J; Parrinello, M. 
 MOLECULAR PHYSICS, 92 (3), 477-487 (1997). 
 A hybrid Gaussian and plane wave density functional scheme.
 https://dx.doi.org/10.1080/002689797170220

 Goedecker, S; Teter, M; Hutter, J. 
 PHYSICAL REVIEW B, 54 (3), 1703-1710 (1996). 
 Separable dual-space Gaussian pseudopotentials.
 https://dx.doi.org/10.1103/PhysRevB.54.1703


 -------------------------------------------------------------------------------
 -                                                                             -
 -                                T I M I N G                                  -
 -                                                                             -
 -------------------------------------------------------------------------------
 SUBROUTINE                       CALLS  ASD         SELF TIME        TOTAL TIME
                                MAXIMUM       AVERAGE  MAXIMUM  AVERAGE  MAXIMUM
 CP2K                                 1  1.0    0.006    0.010   14.488   14.489
 qs_mol_dyn_low                       1  2.0    0.003    0.003   13.600   13.610
 qs_forces                           11  3.9    0.001    0.001   13.334   13.334
 qs_energies                         11  4.9    0.001    0.001   12.886   12.900
 scf_env_do_scf                      11  5.9    0.001    0.001   10.480   10.481
 scf_env_do_scf_inner_loop          108  6.5    0.003    0.007    9.229    9.229
 velocity_verlet                     10  3.0    0.001    0.001    6.856    6.858
 qs_scf_new_mos                     108  7.5    0.000    0.001    5.021    5.076
 qs_scf_loop_do_ot                  108  8.5    0.000    0.001    5.021    5.076
 ot_scf_mini                        108  9.5    0.001    0.002    4.789    4.824
 dbcsr_multiply_generic            2286 12.5    0.051    0.057    4.696    4.821
 multiply_cannon                   2286 13.5    0.222    0.243    2.721    2.983
 ot_mini                            108 10.5    0.001    0.001    2.665    2.707
 mp_waitall_1                    321116 15.5    1.906    2.694    1.906    2.694
 qs_rho_update_rho                  119  7.7    0.001    0.001    2.622    2.650
 calculate_rho_elec                 119  8.7    0.968    1.029    2.621    2.649
 rebuild_ks_matrix                  119  8.3    0.000    0.001    2.485    2.537
 qs_ks_build_kohn_sham_matrix       119  9.3    0.012    0.014    2.484    2.536
 qs_ks_update_qs_env                119  7.6    0.002    0.003    2.196    2.243
 multiply_cannon_metrocomm3       36576 14.5    0.050    0.058    1.310    2.143
 qs_ot_get_derivative               108 11.5    0.000    0.001    2.082    2.118
 rs_pw_transfer                     974 11.9    0.006    0.006    1.704    1.776
 sum_up_and_integrate               119 10.3    0.003    0.003    1.756    1.761
 integrate_v_rspace                 119 11.3    0.723    0.771    1.754    1.758
 density_rs2pw                      119  9.7    0.003    0.003    1.430    1.502
 qs_energies_init_hamiltonians       11  5.9    0.000    0.000    1.421    1.421
 qs_ot_get_p                        119 10.4    0.001    0.001    1.372    1.416
 qs_env_update_s_mstruct             11  6.9    0.000    0.000    1.360    1.366
 qs_create_task_list                 11  7.9    0.000    0.000    1.236    1.250
 generate_qs_task_list               11  8.9    0.028    0.037    1.236    1.250
 init_scf_loop                       11  6.9    0.000    0.000    1.239    1.240
 distribute_tasks                    11  9.9    0.005    0.006    1.208    1.222
 multiply_cannon_multrec          36576 14.5    0.576    1.195    0.579    1.198
 make_m2s                          4572 13.5    0.040    0.045    1.076    1.135
 create_local_tasks                  11 10.9    0.002    0.002    1.109    1.109
 mp_alltoall_l11v                    11 11.9    1.040    1.085    1.040    1.085
 mp_waitany                        9396 13.9    0.894    0.977    0.894    0.977
 make_images                       4572 14.5    0.112    0.128    0.870    0.929
 init_scf_run                        11  5.9    0.000    0.000    0.910    0.913
 scf_env_initial_rho_setup           11  6.9    0.000    0.000    0.910    0.913
 prepare_preconditioner              11  7.9    0.000    0.000    0.904    0.908
 make_preconditioner                 11  8.9    0.000    0.000    0.904    0.908
 mp_alltoall_d11v                  2141 13.8    0.721    0.903    0.721    0.903
 make_full_inverse_cholesky          11  9.9    0.000    0.000    0.879    0.885
 mp_sum_l                         10898 13.6    0.631    0.862    0.631    0.862
 qs_init_subsys                       1  2.0    0.000    0.001    0.838    0.838
 init_qs_kind_set                     1  3.0    0.000    0.000    0.719    0.808
 init_qs_kind                         2  4.0    0.000    0.000    0.719    0.808
 init_orb_basis_set                   2  5.0    0.000    0.000    0.719    0.807
 init_cphi_and_sphi                   2  6.0    0.719    0.807    0.719    0.807
 qs_ot_p2m_diag                      50 11.0    0.002    0.004    0.788    0.796
 potential_pw2rs                    119 12.3    0.002    0.002    0.771    0.774
 qs_ot_get_derivative_diag           49 12.0    0.001    0.001    0.741    0.760
 pw_transfer                       1439 11.6    0.051    0.060    0.703    0.716
 qs_ot_get_derivative_taylor         59 13.0    0.001    0.001    0.692    0.709
 cp_dbcsr_syevd                      50 12.0    0.003    0.003    0.678    0.679
 fft_wrap_pw1pw2                   1201 12.6    0.003    0.003    0.648    0.661
 cp_fm_diag_elpa                     50 13.0    0.000    0.000    0.632    0.635
 cp_fm_diag_elpa_base                50 14.0    0.626    0.629    0.632    0.635
 rs_pw_transfer_RS2PW_140           130 11.5    0.049    0.065    0.534    0.612
 rs_distribute_matrix               249 10.9    0.038    0.047    0.393    0.575
 ot_diis_step                       108 11.5    0.009    0.011    0.561    0.562
 wfi_extrapolate                     11  7.9    0.001    0.001    0.536    0.536
 dbcsr_complete_redistribute        329 12.2    0.028    0.035    0.485    0.527
 apply_preconditioner_dbcsr         119 12.6    0.000    0.000    0.488    0.527
 apply_single                       119 13.6    0.000    0.000    0.488    0.527
 make_images_sizes                 4572 15.5    0.002    0.003    0.397    0.483
 mp_alltoall_i44                   4572 16.5    0.395    0.481    0.395    0.481
 copy_dbcsr_to_fm                   153 11.3    0.001    0.002    0.457    0.475
 multiply_cannon_metrocomm1       36576 14.5    0.025    0.030    0.110    0.440
 rs_pw_transfer_RS2PW_50            119 11.7    0.050    0.058    0.319    0.432
 fft_wrap_pw1pw2_140                487 13.2    0.012    0.014    0.382    0.401
 qs_ot_get_orbitals                 108 10.5    0.000    0.000    0.353    0.365
 fft3d_pb                           487 14.2    0.058    0.072    0.346    0.362
 transfer_dbcsr_to_fm                11 10.9    0.000    0.000    0.349    0.353
 cp_fm_cholesky_invert               11 10.9    0.348    0.349    0.348    0.349
 mp_sum_d                          4127 12.0    0.253    0.337    0.253    0.337
 qs_env_setup                         1  3.0    0.000    0.000    0.117    0.333
 qs_env_rebuild_pw_env               23  5.3    0.000    0.000    0.116    0.333
 pw_env_rebuild                       1  5.0    0.000    0.001    0.116    0.333
 qs_ks_update_qs_env_forces          11  4.9    0.000    0.000    0.309    0.314
 mp_alltoall_z22v                  1688 16.5    0.289    0.312    0.289    0.312
 make_images_data                  4572 15.5    0.026    0.031    0.234    0.308
 mp_comm_dup                          8  6.5    0.089    0.306    0.089    0.306
 calculate_dm_sparse                119  9.5    0.000    0.000    0.278    0.303
 cp_dbcsr_sm_fm_multiply             37  9.5    0.000    0.001    0.299    0.301
 mp_allgather_i34                  2286 14.5    0.217    0.289    0.217    0.289
 mp_sum_dm                          460  4.9    0.280    0.287    0.280    0.287
 fft3d_ps                           714 15.0    0.012    0.020    0.255    0.285
 hybrid_alltoall_any               4725 16.4    0.027    0.042    0.191    0.276
 md_write_output                     11  3.9    0.001    0.054    0.003    0.261
 update_particle_set                 20  4.0    0.000    0.000    0.255    0.258
 arnoldi_extremal                   119 11.4    0.001    0.001    0.229    0.255
 arnoldi_normal_ev                  119 12.4    0.001    0.002    0.228    0.254
 cp_fm_cholesky_decompose            22 10.9    0.250    0.252    0.250    0.252
 cp_dbcsr_sm_fm_multiply_core        37 10.5    0.000    0.000    0.216    0.249
 rs_pw_transfer_PW2RS_50            119 14.3    0.035    0.046    0.221    0.233
 calculate_first_density_matrix       1  7.0    0.000    0.000    0.214    0.214
 write_trajectory                    44  4.9    0.001    0.005    0.002    0.207
 rs_pw_transfer_RS2PW_20            119 11.7    0.065    0.074    0.193    0.207
 write_particle_coordinates          11  5.9    0.002    0.201    0.002    0.201
 rs_pw_transfer_PW2RS_140           130 13.9    0.050    0.057    0.193    0.198
 multiply_cannon_metrocomm2       32004 14.5    0.046    0.054    0.107    0.198
 dbcsr_dot_sd                      1205 11.9    0.018    0.024    0.137    0.197
 mp_alltoall_i22                    627 13.8    0.146    0.191    0.146    0.191
 dbcsr_make_images_dense           3978 14.8    0.024    0.027    0.137    0.187
 mp_sync                           1432 16.9    0.146    0.186    0.146    0.186
 make_basis_sm                       11  9.8    0.000    0.000    0.169    0.169
 dbcsr_make_dense_low              7826 15.6    0.022    0.025    0.104    0.168
 dbcsr_create_new                 32468 15.0    0.078    0.086    0.144    0.159
 fft_wrap_pw1pw2_50                 238 14.0    0.002    0.004    0.122    0.156
 build_subspace                     119 13.4    0.004    0.005    0.153    0.155
 copy_fm_to_dbcsr                   176 11.2    0.000    0.000    0.101    0.149
 dbcsr_finalize                    5792 13.4    0.014    0.018    0.114    0.147
 mp_irecv_dv                      76040 15.5    0.035    0.144    0.035    0.144
 cube_transpose_4                   249 15.8    0.010    0.012    0.132    0.143
 xz_to_yz                           357 14.7    0.010    0.018    0.129    0.137
 rs_pw_transfer_PW2RS_20            119 14.3    0.041    0.047    0.120    0.134
 make_dense_data                   7826 16.6    0.056    0.113    0.070    0.134
 calculate_rho_core                  11  7.9    0.004    0.005    0.123    0.132
 dbcsr_matrix_vector_mult          1669 14.0    0.006    0.007    0.099    0.116
 dbcsr_merge_all                   5178 14.5    0.046    0.068    0.086    0.114
 mp_sum_dv                         6497 15.2    0.099    0.106    0.099    0.106
 mp_isend_dv                      77138 15.5    0.043    0.100    0.043    0.100
 load_balance_distributed            22 10.9    0.000    0.000    0.084    0.099
 cube_transpose_2                   606 15.1    0.012    0.013    0.079    0.098
 build_core_hamiltonian_matrix_      11  4.9    0.000    0.000    0.079    0.096
 qs_ot_p2m_taylor                    69 11.7    0.000    0.001    0.086    0.095
 cp_dbcsr_plus_fm_fm_t_native        22  8.9    0.000    0.000    0.081    0.094
 yz_to_xz                           357 17.3    0.010    0.017    0.073    0.092
 dbcsr_new_transposed               954 13.3    0.004    0.005    0.068    0.091
 get_current_loads                  132 11.9    0.003    0.003    0.076    0.090
 cp_gemm                             81  9.0    0.000    0.000    0.087    0.090
 cp_gemm_fm_gemm                     81 10.0    0.000    0.000    0.086    0.090
 compute_load_list                   44 11.9    0.009    0.012    0.076    0.090
 cp_fm_gemm                          81 11.0    0.086    0.090    0.086    0.090
 dbcsr_desymmetrize_deep            153 12.3    0.004    0.005    0.060    0.089
 fft_wrap_pw1pw2_20                 238 14.0    0.001    0.002    0.082    0.088
 reorthogonalize_vectors             10  9.0    0.000    0.000    0.086    0.087
 ot_scf_init                         11  7.9    0.001    0.001    0.083    0.084
 multiply_cannon_metrocomm4       34290 14.5    0.049    0.058    0.072    0.084
 qs_energies_compute_matrix_w        11  5.9    0.000    0.000    0.069    0.084
 calculate_w_matrix_ot               11  6.9    0.000    0.000    0.069    0.083
 rs_grid_zero                       736 11.5    0.066    0.083    0.066    0.083
 mp_alltoall_i11v                  1575 13.9    0.046    0.082    0.046    0.082
 arnoldi_init                       119 13.4    0.001    0.002    0.054    0.081
 dbcsr_redistribute                 145 14.7    0.004    0.005    0.056    0.080
 mp_alltoall_l                      143 12.8    0.048    0.075    0.048    0.075
 cube_transpose_1                   595 16.2    0.005    0.005    0.047    0.073
 cube_transpose_3                   238 14.5    0.006    0.008    0.064    0.070
 qs_vxc_create                      119 10.3    0.001    0.002    0.057    0.063
 mp_isend_dm3                      5412 13.9    0.051    0.062    0.051    0.062
 rs_pw_transfer_RS2PW_10            119 11.7    0.021    0.024    0.060    0.062
 fft_wrap_pw1pw2_10                 238 14.0    0.001    0.001    0.059    0.062
 xc_vxc_pw_create                   119 11.3    0.008    0.009    0.056    0.061
 rs_pw_transfer_PW2RS_10            119 14.3    0.020    0.023    0.059    0.060
 calculate_ecore_overlap             22  5.9    0.000    0.000    0.041    0.058
 dbcsr_make_dense                  1859 13.9    0.004    0.005    0.036    0.055
 dbcsr_destroy                    31367 14.2    0.025    0.029    0.046    0.054
 mp_bcast_b                        1787 13.7    0.020    0.053    0.020    0.053
 dbcsr_make_index_exist           32468 16.0    0.042    0.046    0.048    0.053
 dbcsr_special_finalize            6858 15.5    0.007    0.008    0.043    0.052
 build_core_ppl_forces               11  5.9    0.036    0.048    0.036    0.048
 dbcsr_col_vec_to_rep_row          1669 15.0    0.004    0.004    0.036    0.048
 build_core_hamiltonian_matrix       11  6.9    0.000    0.000    0.040    0.048
 mp_sum_b                          4011 13.8    0.045    0.048    0.045    0.048
 md_output                           10  3.0    0.000    0.000    0.003    0.048
 dbcsr_add_d                       1881 12.8    0.001    0.001    0.023    0.047
 dbcsr_data_release              174349 16.0    0.030    0.038    0.037    0.047
 setup_buffer_matrices             4572 14.5    0.007    0.008    0.042    0.047
 dbcsr_add_anytype                 1881 13.8    0.006    0.011    0.022    0.046
 mp_allgather_l                     143 12.8    0.027    0.045    0.027    0.045
 dbcsr_data_new                  102148 15.5    0.028    0.035    0.036    0.045
 external_control                   118  7.2    0.000    0.001    0.013    0.044
 make_images_pack                  4572 15.5    0.022    0.037    0.028    0.043
 dbcsr_iterator_start             33295 15.8    0.022    0.031    0.028    0.042
 buffer_matrices_ensure_size       4572 14.5    0.017    0.037    0.019    0.040
 dbcsr_make_undense                1859 13.9    0.014    0.022    0.026    0.039
 xc_rho_set_and_dset_create         119 12.3    0.002    0.003    0.034    0.039
 pw_poisson_solve                   119 10.3    0.017    0.019    0.037    0.038
 mp_isendrecv_dv                  60452 14.0    0.012    0.036    0.012    0.036
 mp_isend_zv                      10472 17.0    0.007    0.036    0.007    0.036
 xc_functional_eval                 119 13.3    0.030    0.035    0.030    0.035
 quick_finalize                    6302 16.7    0.011    0.014    0.027    0.033
 mp_bcast_dv                       1669 16.0    0.015    0.032    0.015    0.032
 transfer_fm_to_dbcsr                11  9.9    0.000    0.000    0.024    0.029
 Gram_Schmidt_ortho_d              1550 14.0    0.001    0.002    0.022    0.028
 dbcsr_copy                        2232 11.8    0.013    0.015    0.024    0.027
 dbcsr_iterator_stop              33295 15.8    0.017    0.023    0.019    0.026
 mp_isend_iv                      76339 15.5    0.017    0.025    0.017    0.025
 cp_dbcsr_cholesky_decompose         11 12.9    0.011    0.012    0.022    0.025
 build_core_ppnl_forces              11  5.9    0.022    0.024    0.022    0.024
[...]
 optimize_load_list                  22 11.9    0.000    0.000    0.008    0.009
 dbcsr_distribution_new           12473 14.0    0.008    0.009    0.008    0.009
 dbcsr_make_index_list             6858 14.5    0.007    0.008    0.007    0.008
 calculate_atomic_block_dm            1  8.0    0.001    0.001    0.008    0.008
 create_fast_row_vec_access_d      1669 16.0    0.003    0.006    0.004    0.008
 mp_bcast_av                        566  1.0    0.003    0.003    0.007    0.008
 dbcsr_set                         4172 14.9    0.002    0.002    0.006    0.008
 copy_fm_to_dbcsr_bc                176 12.2    0.002    0.002    0.007    0.007
 mp_allocate_i                    28782 17.0    0.006    0.007    0.006    0.007
 write_restart                       10  4.0    0.000    0.006    0.001    0.007
 build_neighbor_lists_sac_ppl        11  7.9    0.006    0.007    0.006    0.007
 mp_deallocate_i                  28782 16.7    0.006    0.007    0.006    0.007
 mp_max_i                           405  1.6    0.006    0.007    0.006    0.007
 pw_zero                            119 10.7    0.004    0.006    0.004    0.006
 dbcsr_zero                        4270 15.8    0.005    0.006    0.005    0.006
 cleanup_scf_loop                    11  7.9    0.000    0.000    0.001    0.006
 dbcsr_matrix_vector_mult_local    1669 15.0    0.003    0.004    0.005    0.006
 atom_int_setup                       2  9.0    0.005    0.006    0.005    0.006
 mp_bcast_am                          5  7.0    0.003    0.005    0.004    0.006
 dbcsr_reserve_blocks               740 14.3    0.004    0.005    0.005    0.006
 create_fast_col_vec_access        1669 15.0    0.001    0.001    0.005    0.005
 dbcsr_fill_wm_from_matrix          443 13.9    0.003    0.005    0.003    0.005
 create_col_vec_from_matrix         238 13.4    0.000    0.001    0.003    0.005
 dbcsr_make_dbcsr_index           14288 16.5    0.004    0.005    0.004    0.005
 pw_grid_remap                        4  8.0    0.001    0.001    0.004    0.005
 pw_axpy                            595 10.6    0.003    0.005    0.003    0.005
 mp_bcast_im                        120 14.3    0.003    0.005    0.003    0.005
 load_balance_replicated             11 10.9    0.000    0.000    0.005    0.005
 mp_bcast_i3                         22 12.9    0.004    0.005    0.004    0.005
 cp_fm_release                      230 11.4    0.001    0.005    0.001    0.005
 dbcsr_sort_data                    854 15.5    0.002    0.005    0.002    0.005
 mp_sum_im3                           4  9.0    0.004    0.005    0.004    0.005
 create_fast_col_vec_access_d      1669 16.0    0.002    0.003    0.004    0.005
 cp_dbcsr_alloc_block_from_nbl       88  7.7    0.001    0.002    0.004    0.004
 dbcsr_reserve_all_blocks           652 14.1    0.001    0.001    0.003    0.004
 dbcsr_get_local_cols              4145 14.1    0.003    0.004    0.003    0.004
 get_fft_scratch                   1202 15.6    0.002    0.002    0.003    0.004
 dbcsr_scale_anytype               2109 14.8    0.001    0.002    0.002    0.003
 build_neighbor_lists_sap_ppnl       11  7.9    0.003    0.003    0.003    0.003
 dbcsr_scale_d                      228 13.5    0.000    0.000    0.001    0.003
 dbcsr_mm_multrec_finalize         2286 15.5    0.003    0.003    0.003    0.003
 mp_sum_root_iv                      22 12.9    0.002    0.003    0.002    0.003
 dbcsr_index_prune_deleted         5967 15.8    0.003    0.003    0.003    0.003
 dbcsr_copy_into_existing            22  7.9    0.003    0.003    0.003    0.003
 fill_hash_tables                  2286 16.5    0.003    0.003    0.003    0.003
 dbcsr_add_on_diag                  138 12.7    0.000    0.000    0.003    0.003
 dbcsr_get_local_rows              4145 14.1    0.003    0.003    0.003    0.003
 transpose_index_local              954 14.3    0.001    0.002    0.002    0.003
 cp_fm_init_random                    1  8.0    0.003    0.003    0.003    0.003
 topology_control                     1  2.0    0.000    0.000    0.002    0.003
 cp_fm_create                       225 11.7    0.002    0.003    0.002    0.003
 dbcsr_get_data_size_used          5476 14.6    0.002    0.003    0.002    0.003
 dbcsr_make_index_local_row        6858 14.5    0.002    0.002    0.002    0.002
 pw_grid_sort                         4  8.0    0.001    0.001    0.001    0.002
 balance_global_list                 22 12.9    0.000    0.002    0.000    0.002
 dbcsr_scale_by_vector_anytype      208 11.2    0.001    0.002    0.001    0.002
 mp_sum_im                            5  6.8    0.002    0.002    0.002    0.002
 mp_sum_partial_im                   22 12.9    0.002    0.002    0.002    0.002
 copy_dbcsr_to_fm_bc                153 12.3    0.001    0.002    0.002    0.002
 build_neighbor_lists_sab_orb        11  7.9    0.002    0.002    0.002    0.002
 build_neighbor_lists_sab_all        11  7.9    0.002    0.002    0.002    0.002
 mp_comm_compare                    717 15.9    0.001    0.002    0.001    0.002
 scf_post_calculation_gpw            11  5.9    0.000    0.000    0.002    0.002
 dbcsr_hadamard_product              98 13.0    0.001    0.001    0.001    0.002
 dbcsr_mm_sched_init               2286 16.5    0.001    0.001    0.001    0.002
 mp_irecv_zv                      10472 17.0    0.001    0.002    0.001    0.002
 write_qs_control                     1  3.0    0.001    0.002    0.001    0.002
 mp_bcast_iv                         43  3.3    0.001    0.002    0.001    0.002
 qs_scf_ensure_work_matrices         11  5.9    0.000    0.000    0.001    0.002
 mp_sum_lv                           38  2.6    0.001    0.002    0.001    0.002
 create_replicated_col_vec_from     119 13.4    0.000    0.000    0.001    0.002
 qs_env_rebuild_rho                  11  7.9    0.000    0.000    0.001    0.002
 mp_comm_free                       477 12.9    0.001    0.002    0.001    0.002
 qs_scf_loop_print                  108  7.5    0.001    0.001    0.001    0.001
 qs_rho_rebuild                      11  8.9    0.000    0.000    0.001    0.001
 pw_grid_distribute                   4  8.0    0.001    0.001    0.001    0.001
 build_neighbor_lists_sab_core       11  7.9    0.001    0.001    0.001    0.001
 calculate_atom                       2  9.0    0.000    0.000    0.001    0.001
 calculate_atom_restricted            2 10.0    0.001    0.001    0.001    0.001
 mp_environ_c                      1205 15.6    0.001    0.001    0.001    0.001
 update_input                         1  5.0    0.000    0.000    0.001    0.001
 connectivity_control                 1  3.0    0.000    0.000    0.001    0.001
 scf_c_write_parameters               1  3.0    0.000    0.001    0.000    0.001
 mp_rank_compare                    714 16.0    0.001    0.001    0.001    0.001
 create_replicated_row_vec_from     119 13.4    0.000    0.000    0.001    0.001
 write_mo_set_to_restart            108  7.5    0.001    0.001    0.001    0.001
 write_available_results             11  6.9    0.000    0.000    0.001    0.001
 pw_scale                           119 10.3    0.001    0.001    0.001    0.001
 pw_pool_create_pw                 2416 11.8    0.001    0.001    0.001    0.001
 coordinate_control                   1  3.0    0.000    0.000    0.001    0.001
 coordinate_control_READ_COORDI       1  4.0    0.000    0.000    0.001    0.001
 read_atoms_input                     1  5.0    0.001    0.001    0.001    0.001
 read_qs_section                      1  3.0    0.001    0.001    0.001    0.001
 qs_efield_local_operator           119 10.3    0.001    0.001    0.001    0.001
 pw_grid_assign                       4  8.0    0.000    0.001    0.001    0.001
 topology_generate_bond               1  4.0    0.000    0.000    0.001    0.001
 restraint_control                   11  3.9    0.000    0.000    0.001    0.001
 update_subsys                        1  6.0    0.000    0.000    0.001    0.001
 sort_shells                          4  9.0    0.001    0.001    0.001    0.001
 pw_pool_give_back_pw              2867 12.0    0.001    0.001    0.001    0.001
 rs_grid_create_descriptor            4  6.0    0.000    0.000    0.001    0.001
 wfs_update                          11  5.9    0.000    0.000    0.001    0.001
 make_full_kinetic                   11  9.9    0.000    0.000    0.001    0.001
 section_coord_val_set                1  7.0    0.001    0.001    0.001    0.001
 mp_sum_i                            15  6.7    0.001    0.001    0.001    0.001
 dbcsr_get_global_row_map          2286 13.5    0.001    0.001    0.001    0.001
 create_destination_list             22 11.9    0.001    0.001    0.001    0.001
 ot_scf_read_input                   11  7.9    0.000    0.000    0.000    0.001
 write_mo_free_results               11  7.9    0.000    0.000    0.001    0.001
 mp_environ_l                      1860 15.1    0.001    0.001    0.001    0.001
 topology_generate_bond_3             1  5.0    0.000    0.000    0.001    0.001
 build_fist_neighbor_lists            1  6.0    0.000    0.000    0.001    0.001
 ot_readwrite_input                  11  8.9    0.000    0.001    0.000    0.001
 build_neighbor_lists                 1  7.0    0.001    0.001    0.001    0.001
 dbcsr_get_global_col_map          2286 13.5    0.000    0.001    0.000    0.001
 dbcsr_mm_sched_finalize           2286 16.5    0.000    0.001    0.000    0.001
 calculate_atom_vxc_lda              10 11.0    0.000    0.001    0.000    0.001
 mp_alltoall_i                        3 15.0    0.000    0.001    0.000    0.001
 mp_cart_rank                       951 15.0    0.000    0.001    0.000    0.001
 lgrid_allocate_grid                  1  9.0    0.000    0.001    0.000    0.001
 release_fast_vec_access           3338 15.0    0.000    0.000    0.000    0.000
 qs_scf_print_scf_summary            11  7.9    0.000    0.000    0.000    0.000
 init_cube_info                       4  6.0    0.000    0.000    0.000    0.000
 pw_poisson_rebuild                 119 11.3    0.000    0.000    0.000    0.000
 write_mo_dependent_results          11  7.9    0.000    0.000    0.000    0.000
 dbcsr_mm_hostdrv_init             2286 17.5    0.000    0.000    0.000    0.000
 create_local_fixd_list              11  4.9    0.000    0.000    0.000    0.000
 mpools_rebuild_fm_pools              1  4.0    0.000    0.000    0.000    0.000
 pw_create                          382 12.9    0.000    0.000    0.000    0.000
 rot_ana                              1  3.0    0.000    0.000    0.000    0.000
 qs_efield_berry_phase              119 10.3    0.000    0.000    0.000    0.000
 atom_ppint_setup                     2  9.0    0.000    0.000    0.000    0.000
 topology_connectivity_pack           1  3.0    0.000    0.000    0.000    0.000
 cp_fm_scale_and_add                 24  9.0    0.000    0.000    0.000    0.000
 set_mo_occupation_1                120  9.4    0.000    0.000    0.000    0.000
 cp_fm_redistribute_start            50 14.0    0.000    0.000    0.000    0.000
 write_structure_data                12  4.8    0.000    0.000    0.000    0.000
 diamat_all                           1  4.0    0.000    0.000    0.000    0.000
 fft3d_s                              1  2.0    0.000    0.000    0.000    0.000
 topology_generate_bond_4             1  5.0    0.000    0.000    0.000    0.000
 cp_fm_to_fm_matrix                  21  7.9    0.000    0.000    0.000    0.000
 qs_ks_did_change                   130  7.7    0.000    0.000    0.000    0.000
 mp_min_rv                            1  2.0    0.000    0.000    0.000    0.000
 dump_info_core_hamiltonian          22  6.9    0.000    0.000    0.000    0.000
 contract2add                        10 10.0    0.000    0.000    0.000    0.000
 fix_atom_control                    11  3.9    0.000    0.000    0.000    0.000
 atom2d_build                        11  7.9    0.000    0.000    0.000    0.000
 mp_max_r                             1  2.0    0.000    0.000    0.000    0.000
 qs_scf_ensure_mos                   11  5.9    0.000    0.000    0.000    0.000
 setup_velocities                     1  3.0    0.000    0.000    0.000    0.000
 initialize_velocities                1  4.0    0.000    0.000    0.000    0.000
 mp_sum_r                             1  2.0    0.000    0.000    0.000    0.000
 mp_max_d                             1  1.0    0.000    0.000    0.000    0.000
 scf_env_release                      3  4.0    0.000    0.000    0.000    0.000
 temperature_control                 10  3.0    0.000    0.000    0.000    0.000
 mp_cart_coords                     896 11.6    0.000    0.000    0.000    0.000
 distribute_molecules_2d              1  4.0    0.000    0.000    0.000    0.000
 init_interaction_radii               1  3.0    0.000    0.000    0.000    0.000
 qs_scf_post_ps_implicit             11  8.9    0.000    0.000    0.000    0.000
 qs_scf_post_charges                 11  6.9    0.000    0.000    0.000    0.000
 mp_max_rv                            1  2.0    0.000    0.000    0.000    0.000
 qs_energies_properties              11  5.9    0.000    0.000    0.000    0.000
 qs_scf_post_transport               11  8.9    0.000    0.000    0.000    0.000
 dbcsr_finalize_lib                   1  2.0    0.000    0.000    0.000    0.000
 topology_coordinate_pack             1  3.0    0.000    0.000    0.000    0.000
 create_grid_atom                     2  9.0    0.000    0.000    0.000    0.000
 topology_generate_bond_1             1  5.0    0.000    0.000    0.000    0.000
 rs_grid_create                      26  9.3    0.000    0.000    0.000    0.000
 dbcsr_verify_matrix                 22  9.9    0.000    0.000    0.000    0.000
 connectivity_control_check_ele       1  4.0    0.000    0.000    0.000    0.000
 distribute_molecules_1d              1  3.0    0.000    0.000    0.000    0.000
 dbcsr_filter_anytype               163  9.7    0.000    0.000    0.000    0.000
 transport_current                   11  9.9    0.000    0.000    0.000    0.000
 mp_min_lv                            4  8.0    0.000    0.000    0.000    0.000
 calculate_ecore_self                22  5.9    0.000    0.000    0.000    0.000
 topology_connectivity_pack_2         1  4.0    0.000    0.000    0.000    0.000
 mp_max_lv                            4  8.0    0.000    0.000    0.000    0.000
 comvel_control                      10  3.0    0.000    0.000    0.000    0.000
 write_ks_matrix_csr                 11  8.9    0.000    0.000    0.000    0.000
 compute_averages                    10  5.0    0.000    0.000    0.000    0.000
 section_velocity_val_set             1  7.0    0.000    0.000    0.000    0.000
 remove_restart_info                  1  2.0    0.000    0.000    0.000    0.000
 cp_fm_scale                         10  9.0    0.000    0.000    0.000    0.000
 external_c_potential                22  5.9    0.000    0.000    0.000    0.000
 qs_scf_post_local_stress            11  8.9    0.000    0.000    0.000    0.000
 qs_scf_post_moments                 11  6.9    0.000    0.000    0.000    0.000
 calculate_ecore_efield              22  5.9    0.000    0.000    0.000    0.000
 resp_fit                            11  7.9    0.000    0.000    0.000    0.000
 update_motion                        1  6.0    0.000    0.000    0.000    0.000
 external_e_potential                22  5.9    0.000    0.000    0.000    0.000
 check_generate_mol                   1  6.0    0.000    0.000    0.000    0.000
 external_read_density               11  6.9    0.000    0.000    0.000    0.000
 write_dm_binary_restart             11  8.9    0.000    0.000    0.000    0.000
 topology_coordinate_pack_11          1  4.0    0.000    0.000    0.000    0.000
 topology_generate_onfo               1  4.0    0.000    0.000    0.000    0.000
 qs_scf_post_efg                     11  6.9    0.000    0.000    0.000    0.000
 qs_scf_post_elf                     11  6.9    0.000    0.000    0.000    0.000
 write_s_matrix_csr                  11  8.9    0.000    0.000    0.000    0.000
 cp_fm_redistribute_end              50 14.0    0.000    0.000    0.000    0.000
 topology_connectivity_pack_14        1  4.0    0.000    0.000    0.000    0.000
 qs_scf_post_epr                     11  6.9    0.000    0.000    0.000    0.000
 qs_scf_post_local_energy            11  8.9    0.000    0.000    0.000    0.000
 topology_set_atm_mass                1  4.0    0.000    0.000    0.000    0.000
 mp_sum_lm3                           1  2.0    0.000    0.000    0.000    0.000
 topology_connectivity_pack_9         1  4.0    0.000    0.000    0.000    0.000
 topology_generate_bond_2             1  5.0    0.000    0.000    0.000    0.000
 qs_scf_post_xray                    11  6.9    0.000    0.000    0.000    0.000
 sg_erf                               5 10.0    0.000    0.000    0.000    0.000
 linres_calculation_low              11  6.9    0.000    0.000    0.000    0.000
 qs_scf_post_molopt                  11  6.9    0.000    0.000    0.000    0.000
 sort_neighbor_lists                  1  7.0    0.000    0.000    0.000    0.000
 write_mos_molden                    11  8.9    0.000    0.000    0.000    0.000
 topology_generate_molecule           1  4.0    0.000    0.000    0.000    0.000
 cp_ddapc_init                       11  7.9    0.000    0.000    0.000    0.000
 write_adjacency_matrix              11  8.9    0.000    0.000    0.000    0.000
 topology_connectivity_pack_4         1  4.0    0.000    0.000    0.000    0.000
 topology_connectivity_pack_5         1  4.0    0.000    0.000    0.000    0.000
 mp_sum_rv                            1  2.0    0.000    0.000    0.000    0.000
 topology_connectivity_pack_12        1  4.0    0.000    0.000    0.000    0.000
 metadyn_integrator                  10  4.0    0.000    0.000    0.000    0.000
 destroy_preconditioner               1  3.0    0.000    0.000    0.000    0.000
 scf_c_read_parameters                1  3.0    0.000    0.000    0.000    0.000
 topology_coordinate_pack_1           1  4.0    0.000    0.000    0.000    0.000
 add_external_potential              11  3.9    0.000    0.000    0.000    0.000
 topology_constraint_pack             1  3.0    0.000    0.000    0.000    0.000
 topology_connectivity_pack_10        1  4.0    0.000    0.000    0.000    0.000
 update_motion_AVERAGES               1  7.0    0.000    0.000    0.000    0.000
 topology_connectivity_pack_13        1  4.0    0.000    0.000    0.000    0.000
 topology_connectivity_pack_6         1  4.0    0.000    0.000    0.000    0.000
 topology_connectivity_pack_11        1  4.0    0.000    0.000    0.000    0.000
 fist_neighbor_init                   1  8.0    0.000    0.000    0.000    0.000
 wannier90_interface                 11  6.9    0.000    0.000    0.000    0.000
 topology_coordinate_pack_7a          1  4.0    0.000    0.000    0.000    0.000
 wfn_mix                             11  6.9    0.000    0.000    0.000    0.000
 make_basic_distribution              1  5.0    0.000    0.000    0.000    0.000
 read_binary_velocities               3  5.0    0.000    0.000    0.000    0.000
 free_energy_evaluate                10  3.0    0.000    0.000    0.000    0.000
 scf_env_cleanup                     11  5.9    0.000    0.000    0.000    0.000
 -------------------------------------------------------------------------------

 The number of warnings for this run is : 2
 
 -------------------------------------------------------------------------------
  **** **** ******  **  PROGRAM ENDED AT                 2021-06-07 11:17:23.082
 ***** ** ***  *** **   PROGRAM RAN ON                                 nid001105
 **    ****   ******    PROGRAM RAN BY                                    hjudge
 ***** **    ** ** **   PROGRAM PROCESS ID                                186522
  **** **  *******  **  PROGRAM STOPPED IN /lus/cls01095/work/z19/z19/hjudge/CP2
                                           K/test/H2O-64-mod/with-pinning
