 vasp.5.4.4.18Apr17-6-g9f103f2a35 (build Oct 30 2020 07:15:38) complex           
 executed on        HPECrayEX-GNU date 2020.11.07  12:48:00
 running on  128 total cores
 distrk:  each k-point on   64 cores,    2 groups
 distr:  one band on NCORES_PER_BAND=  16 cores,    4 groups


--------------------------------------------------------------------------------------------------------


 INCAR:
 POTCAR:    PAW_PBE Cd 06Sep2000                  
 POTCAR:    PAW_PBE Te 08Apr2002                  

 ----------------------------------------------------------------------------- 
|                                                                             |
|           W    W    AA    RRRRR   N    N  II  N    N   GGGG   !!!           |
|           W    W   A  A   R    R  NN   N  II  NN   N  G    G  !!!           |
|           W    W  A    A  R    R  N N  N  II  N N  N  G       !!!           |
|           W WW W  AAAAAA  RRRRR   N  N N  II  N  N N  G  GGG   !            |
|           WW  WW  A    A  R   R   N   NN  II  N   NN  G    G                |
|           W    W  A    A  R    R  N    N  II  N    N   GGGG   !!!           |
|                                                                             |
|      You have enabled k-point parallelism (KPAR>1).                         |
|      This developmental code was originally  written by Paul Kent at ORNL,  |
|      and carefully double checked in Vienna.                                |
|      GW as well as linear response parallelism added by Martijn Marsman     |
|      and Georg Kresse.                                                      |
|      Carefully verify results versus KPAR=1.                                |
|      Report problems to Paul Kent and Vienna.                               |
|                                                                             |
 ----------------------------------------------------------------------------- 

 POTCAR:    PAW_PBE Cd 06Sep2000                  
   VRHFIN =Cd : s2 d10                                                          
   LEXCH  = PE                                                                  
   EATOM  =  1293.1815 eV,   95.0462 Ry                                         
                                                                                
   TITEL  = PAW_PBE Cd 06Sep2000                                                
   LULTRA =        F    use ultrasoft PP ?                                      
   IUNSCR =        1    unscreen: 0-lin 1-nonlin 2-no                           
   RPACOR =    2.000    partial core radius                                     
   POMASS =  112.411; ZVAL   =   12.000    mass and valenz                      
   RCORE  =    2.300    outmost cutoff radius                                   
   RWIGS  =    2.980; RWIGS  =    1.577    wigner-seitz radius (au A)           
   ENMAX  =  274.336; ENMIN  =  205.752 eV                                      
   RCLOC  =    2.054    cutoff for local pot                                    
   LCOR   =        T    correct aug charges                                     
   LPAW   =        T    paw PP                                                  
   EAUG   =  456.106                                                            
   DEXC   =    0.000                                                            
   RMAX   =    2.358    core radius for proj-oper                               
   RAUG   =    1.300    factor for augmentation sphere                          
   RDEP   =    2.450    radius for radial grids                                 
   RDEPT  =    1.955    core radius for aug-charge                              
                                                                                
   Atomic configuration                                                         
   12 entries                                                                   
     n  l   j            E        occ.                                          
     1  0  0.50    -26519.7817   2.0000                                         
     2  0  0.50     -3936.9612   2.0000                                         
     2  1  1.50     -3532.2230   6.0000                                         
     3  0  0.50      -733.7908   2.0000                                         
     3  1  1.50      -601.0792   6.0000                                         
     3  2  2.50      -393.5307  10.0000                                         
     4  0  0.50      -105.8977   2.0000                                         
     4  1  1.50       -66.9488   6.0000                                         
     4  2  2.50       -11.7331  10.0000                                         
     5  0  0.50        -5.6592   2.0000                                         
     5  1  0.50        -1.3606   0.0000                                         
     4  3  2.50        -1.3606   0.0000                                         
   Description                                                                  
     l       E           TYP  RCUT    TYP  RCUT                                 
     2    -11.7331479     23  2.300                                             
     2    -13.0937305     23  2.300                                             
     0     -5.6591502     23  2.300                                             
     0     -1.5561433     23  2.300                                             
     1     -2.7211652     23  2.300                                             
     1      8.3548275     23  2.300                                             
  local pseudopotential read in
  partial core-charges read in
  partial kinetic energy density read in
  atomic valenz-charges read in
  non local Contribution for L=           2  read in
    real space projection operators read in
  non local Contribution for L=           2  read in
    real space projection operators read in
  non local Contribution for L=           0  read in
    real space projection operators read in
  non local Contribution for L=           0  read in
    real space projection operators read in
  non local Contribution for L=           1  read in
    real space projection operators read in
  non local Contribution for L=           1  read in
    real space projection operators read in
    PAW grid and wavefunctions read in

   number of l-projection  operators is LMAX  =           6
   number of lm-projection operators is LMMAX =          18

 POTCAR:    PAW_PBE Te 08Apr2002                  
   VRHFIN =Te: s2p4                                                             
   LEXCH  = PE                                                                  
   EATOM  =   223.2721 eV,   16.4100 Ry                                         
                                                                                
   TITEL  = PAW_PBE Te 08Apr2002                                                
   LULTRA =        F    use ultrasoft PP ?                                      
   IUNSCR =        1    unscreen: 0-lin 1-nonlin 2-no                           
   RPACOR =    2.200    partial core radius                                     
   POMASS =  127.600; ZVAL   =    6.000    mass and valenz                      
   RCORE  =    2.300    outmost cutoff radius                                   
   RWIGS  =    2.900; RWIGS  =    1.535    wigner-seitz radius (au A)           
   ENMAX  =  174.982; ENMIN  =  131.236 eV                                      
   ICORE  =        3    local potential                                         
   LCOR   =        T    correct aug charges                                     
   LPAW   =        T    paw PP                                                  
   EAUG   =  368.792                                                            
   DEXC   =    0.000                                                            
   RMAX   =    2.345    core radius for proj-oper                               
   RAUG   =    1.300    factor for augmentation sphere                          
   RDEP   =    2.397    radius for radial grids                                 
   RDEPT  =    2.174    core radius for aug-charge                              
                                                                                
   Atomic configuration                                                         
   13 entries                                                                   
     n  l   j            E        occ.                                          
     1  0  0.50    -31621.2075   2.0000                                         
     2  0  0.50     -4848.7941   2.0000                                         
     2  1  1.50     -4352.1960   6.0000                                         
     3  0  0.50      -964.9612   2.0000                                         
     3  1  1.50      -803.6179   6.0000                                         
     3  2  2.50      -559.8710  10.0000                                         
     4  0  0.50      -164.3522   2.0000                                         
     4  1  1.50      -114.3756   6.0000                                         
     4  2  2.50       -41.6483  10.0000                                         
     5  0  0.50       -15.1072   2.0000                                         
     5  1  0.50        -5.9526   4.0000                                         
     5  2  1.50        -5.4423   0.0000                                         
     4  3  2.50        -5.4423   0.0000                                         
   Description                                                                  
     l       E           TYP  RCUT    TYP  RCUT                                 
     0    -15.1072389     23  2.300                                             
     0    -16.4678215     23  2.300                                             
     1     -5.9526306     23  2.300                                             
     1     -2.4873968     23  2.300                                             
     2     -5.4423304     23  2.300                                             
     3     -1.3605826     23  2.300                                             
  local pseudopotential read in
  partial core-charges read in
  partial kinetic energy density read in
  atomic valenz-charges read in
  non local Contribution for L=           0  read in
    real space projection operators read in
  non local Contribution for L=           0  read in
    real space projection operators read in
  non local Contribution for L=           1  read in
    real space projection operators read in
  non local Contribution for L=           1  read in
    real space projection operators read in
  non local Contribution for L=           2  read in
    real space projection operators read in
    PAW grid and wavefunctions read in

   number of l-projection  operators is LMAX  =           5
   number of lm-projection operators is LMMAX =          13


 ----------------------------------------------------------------------------- 
|                                                                             |
|  ADVICE TO THIS USER RUNNING 'VASP/VAMP'   (HEAR YOUR MASTER'S VOICE ...):  |
|                                                                             |
|      You have a (more or less) 'large supercell' and for larger cells       |
|      it might be more efficient to use real space projection opertators     |
|      So try LREAL= Auto  in the INCAR   file.                               |
|      Mind:          For very  accurate calculation you might also keep the  |
|      reciprocal projection scheme          (i.e. LREAL=.FALSE.)             |
|                                                                             |
 ----------------------------------------------------------------------------- 

  PAW_PBE Cd 06Sep2000                  :
 energy of atom  1       EATOM=-1293.1815
 kinetic energy error for atom=    0.0084 (will be added to EATOM!!)
  PAW_PBE Te 08Apr2002                  :
 energy of atom  2       EATOM= -223.2721
 kinetic energy error for atom=    0.0008 (will be added to EATOM!!)


 POSCAR: Cd33 Te32                               
  positions in direct lattice
  No initial velocities read in
 exchange correlation table for  LEXCH =        8
   RHO(1)=    0.500       N(1)  =     2000
   RHO(2)=  100.500       N(2)  =     4000



--------------------------------------------------------------------------------------------------------


 ion  position               nearest neighbor table
   1  0.004  0.996  0.004-  44 2.79  35 2.93  54 2.93  65 2.93  33 2.94
   2  0.001  0.999  0.497-  55 2.82  34 2.82  64 2.82  45 2.84
   3  0.001  0.503  0.001-  63 2.82  56 2.82  37 2.82  42 2.84
   4  1.000  0.501  0.499-  57 2.82  62 2.82  36 2.82  43 2.84
   5  0.497  0.999  0.001-  39 2.82  50 2.82  61 2.82  48 2.84
   6  0.499  0.000  0.499-  38 2.82  51 2.82  60 2.82  49 2.84
   7  0.499  0.501  1.000-  41 2.82  59 2.82  52 2.82  46 2.84
   8  0.501  0.499  0.501-  47 2.82  40 2.83  53 2.83  58 2.83
   9  0.001  0.251  0.253-  54 2.82  34 2.82  62 2.82  42 2.84
  10  0.004  0.254  0.746-  43 2.79  35 2.93  55 2.93  63 2.93  33 2.94
  11  1.000  0.749  0.251-  56 2.82  64 2.82  36 2.82  44 2.84
  12  0.001  0.747  0.749-  65 2.82  57 2.82  37 2.82  45 2.84
  13  0.499  0.250  0.251-  38 2.82  50 2.82  58 2.82  46 2.84
  14  0.497  0.251  0.749-  39 2.82  51 2.82  59 2.82  47 2.84
  15  0.501  0.751  0.249-  48 2.82  40 2.83  52 2.83  60 2.83
  16  0.499  0.749  0.750-  41 2.82  61 2.82  53 2.82  49 2.84
  17  0.251  0.000  0.251-  34 2.82  50 2.82  60 2.82  44 2.84
  18  0.253  0.999  0.749-  35 2.82  51 2.82  61 2.82  45 2.84
  19  0.249  0.499  0.249-  42 2.82  36 2.83  52 2.83  58 2.83
  20  0.251  0.501  0.750-  37 2.82  59 2.82  53 2.82  43 2.84
  21  0.749  0.999  0.253-  54 2.82  38 2.82  64 2.82  48 2.84
  22  0.746  0.996  0.746-  49 2.79  39 2.93  55 2.93  65 2.93  33 2.94
  23  0.750  0.501  0.251-  56 2.82  62 2.82  40 2.82  46 2.84
  24  0.749  0.503  0.749-  63 2.82  57 2.82  41 2.82  47 2.84
  25  0.253  0.251  0.001-  35 2.82  50 2.82  59 2.82  42 2.84
  26  0.251  0.250  0.499-  34 2.82  51 2.82  58 2.82  43 2.84
  27  0.251  0.749  1.000-  37 2.82  61 2.82  52 2.82  44 2.84
  28  0.249  0.751  0.501-  45 2.82  36 2.83  53 2.83  60 2.83
  29  0.746  0.254  0.004-  46 2.79  39 2.93  54 2.93  63 2.93  33 2.94
  30  0.749  0.251  0.497-  55 2.82  38 2.82  62 2.82  47 2.84
  31  0.749  0.747  0.001-  65 2.82  56 2.82  41 2.82  48 2.84
  32  0.750  0.749  0.499-  57 2.82  64 2.82  40 2.82  49 2.84
  33  0.875  0.125  0.875-   1 2.94  10 2.94  22 2.94  29 2.94  35 3.37  39 3.37  54 3.37  55 3.37
                            63 3.37  65 3.37
  34  0.127  0.125  0.375-  17 2.82  26 2.82   2 2.82   9 2.82
  35  0.133  0.125  0.875-  18 2.82  25 2.82  10 2.93   1 2.93  33 3.37
  36  0.126  0.625  0.375-   4 2.82  11 2.82  19 2.83  28 2.83
  37  0.127  0.625  0.875-  20 2.82  27 2.82   3 2.82  12 2.82
  38  0.623  0.125  0.375-  13 2.82   6 2.82  21 2.82  30 2.82
  39  0.617  0.125  0.875-  14 2.82   5 2.82  22 2.93  29 2.93  33 3.37
  40  0.624  0.625  0.375-  23 2.82  32 2.82   8 2.83  15 2.83
  41  0.623  0.625  0.875-   7 2.82  16 2.82  31 2.82  24 2.82
  42  0.125  0.375  0.125-  19 2.82   9 2.84  25 2.84   3 2.84
  43  0.127  0.377  0.623-  10 2.79   4 2.84  26 2.84  20 2.84
  44  0.127  0.873  0.127-   1 2.79  11 2.84  17 2.84  27 2.84
  45  0.125  0.875  0.625-  28 2.82  18 2.84   2 2.84  12 2.84
  46  0.623  0.377  0.127-  29 2.79  13 2.84  23 2.84   7 2.84
  47  0.625  0.375  0.625-   8 2.82  14 2.84  24 2.84  30 2.84
  48  0.625  0.875  0.125-  15 2.82  21 2.84   5 2.84  31 2.84
  49  0.623  0.873  0.623-  22 2.79  32 2.84   6 2.84  16 2.84
  50  0.375  0.125  0.127-  17 2.82  13 2.82   5 2.82  25 2.82
  51  0.375  0.125  0.623-   6 2.82  26 2.82  18 2.82  14 2.82
  52  0.375  0.625  0.126-   7 2.82  27 2.82  19 2.83  15 2.83
  53  0.375  0.625  0.624-  16 2.82  20 2.82   8 2.83  28 2.83
  54  0.875  0.125  0.133-   9 2.82  21 2.82   1 2.93  29 2.93  33 3.37
  55  0.875  0.125  0.617-  30 2.82   2 2.82  22 2.93  10 2.93  33 3.37
  56  0.875  0.625  0.127-  11 2.82  23 2.82   3 2.82  31 2.82
  57  0.875  0.625  0.623-   4 2.82  32 2.82  12 2.82  24 2.82
  58  0.375  0.376  0.375-  26 2.82  13 2.82  19 2.83   8 2.83
  59  0.375  0.377  0.875-   7 2.82  20 2.82  14 2.82  25 2.82
  60  0.375  0.874  0.375-   6 2.82  17 2.82  15 2.83  28 2.83
  61  0.375  0.873  0.875-  16 2.82  27 2.82   5 2.82  18 2.82
  62  0.875  0.377  0.375-   4 2.82  23 2.82   9 2.82  30 2.82
  63  0.875  0.383  0.875-  24 2.82   3 2.82  10 2.93  29 2.93  33 3.37
  64  0.875  0.873  0.375-  11 2.82  32 2.82   2 2.82  21 2.82
  65  0.875  0.867  0.875-  12 2.82  31 2.82   1 2.93  22 2.93  33 3.37


IMPORTANT INFORMATION: All symmetrisations will be switched off!
NOSYMM: (Re-)initialisation of all symmetry stuff for point group C_1.



 KPOINTS: Automatically generated mesh            
  k-points in reciprocal lattice
Space group operators:
 irot       det(A)        alpha          n_x          n_y          n_z        tau_x        tau_y        tau_z
    1     1.000000     0.000000     1.000000     0.000000     0.000000     0.000000     0.000000     0.000000

 ----------------------------------------------------------------------------- 
|                                                                             |
|           W    W    AA    RRRRR   N    N  II  N    N   GGGG   !!!           |
|           W    W   A  A   R    R  NN   N  II  NN   N  G    G  !!!           |
|           W    W  A    A  R    R  N N  N  II  N N  N  G       !!!           |
|           W WW W  AAAAAA  RRRRR   N  N N  II  N  N N  G  GGG   !            |
|           WW  WW  A    A  R   R   N   NN  II  N   NN  G    G                |
|           W    W  A    A  R    R  N    N  II  N    N   GGGG   !!!           |
|                                                                             |
|      Your generating k-point grid is not commensurate to the symmetry       |
|      of the lattice.  This can cause   slow convergence with respect        |
|      to k-points for HF type calculations                                   |
|      suggested SOLUTIONS:                                                   |
|       ) if not already the case, use automatic k-point generation           |
|       ) shift your grid to Gamma (G) (e.g. required for hex or fcc lattice) |
|                                                                             |
 ----------------------------------------------------------------------------- 

 
 Subroutine IBZKPT_HF returns following result:
 ==============================================
 
 Found      8 k-points in 1st BZ
 the following      8 k-points will be used (e.g. in the exchange kernel)
 Following reciprocal coordinates:   # in IRBZ
  0.000000  0.000000  0.000000    0.12500000   1 t-inv F
  0.500000  0.000000  0.000000    0.12500000   2 t-inv F
  0.000000  0.500000  0.000000    0.12500000   3 t-inv F
  0.500000  0.500000  0.000000    0.12500000   4 t-inv F
  0.000000  0.000000  0.500000    0.12500000   5 t-inv F
  0.500000  0.000000  0.500000    0.12500000   6 t-inv F
  0.000000  0.500000  0.500000    0.12500000   7 t-inv F
  0.500000  0.500000  0.500000    0.12500000   8 t-inv F


--------------------------------------------------------------------------------------------------------




 Dimension of arrays:
   k-points           NKPTS =      8   k-points in BZ     NKDIM =      8   number of bands    NBANDS=    772
   number of dos      NEDOS =   2000   number of ions     NIONS =     65
   non local maximal  LDIM  =      6   non local SUM 2l+1 LMDIM =     18
   total plane-waves  NPLWV = 884736
   max r-space proj   IRMAX =      1   max aug-charges    IRDMAX= 183854
   dimension x,y,z NGX =    96 NGY =   96 NGZ =   96
   dimension x,y,z NGXF=   192 NGYF=  192 NGZF=  192
   support grid    NGXF=   384 NGYF=  384 NGZF=  384
   ions per type =              33  32
   NGX,Y,Z   is equivalent  to a cutoff of  12.20, 12.20, 12.20 a.u.
   NGXF,Y,Z  is equivalent  to a cutoff of  24.39, 24.39, 24.39 a.u.

 SYSTEM =  unknown system                          
 POSCAR =  Cd33 Te32                               

 Startparameter for this run:
   NWRITE =      2    write-flag & timer
   PREC   = accura    normal or accurate (medium, high low for compatibility)
   ISTART =      0    job   : 0-new  1-cont  2-samecut
   ICHARG =      1    charge: 1-file 2-atom 10-const
   ISPIN  =      1    spin polarized calculation?
   LNONCOLLINEAR =      T non collinear calculations
   LSORBIT =      T    spin-orbit coupling
   INIWAV =      1    electr: 0-lowe 1-rand  2-diag
   LASPH  =      T    aspherical Exc in radial PAW
   METAGGA=      F    non-selfconsistent MetaGGA calc.

 Electronic Relaxation 1
   ENCUT  =  450.0 eV  33.07 Ry    5.75 a.u.  22.64 22.64 22.64*2*pi/ulx,y,z
   ENINI  =  450.0     initial cutoff
   ENAUG  =  456.1 eV  augmentation charge cutoff
   NELM   =      6;   NELMIN=  2; NELMDL= -5     # of ELM steps 
   EDIFF  = 0.1E-05   stopping-criterion for ELM
   LREAL  =      F    real-space projection
   NLSPLINE    = F    spline interpolate recip. space projectors
   LCOMPAT=      F    compatible to vasp.4.4
   GGA_COMPAT  = T    GGA compatible to vasp.4.4-vasp.4.6
   LMAXPAW     = -100 max onsite density
   LMAXMIX     =    2 max onsite mixed and CHGCAR
   VOSKOWN=      0    Vosko Wilk Nusair interpolation
   ROPT   =    0.00000   0.00000
 Ionic relaxation
   EDIFFG = -.1E-01   stopping-criterion for IOM
   NSW    =      0    number of steps for IOM
   NBLOCK =      1;   KBLOCK =      1    inner block; outer block 
   IBRION =     -1    ionic relax: 0-MD 1-quasi-New 2-CG
   NFREE  =      0    steps in history (QN), initial steepest desc. (CG)
   ISIF   =      2    stress and relaxation
   IWAVPR =     10    prediction:  0-non 1-charg 2-wave 3-comb
   ISYM   =      0    0-nonsym 1-usesym 2-fastsym
   LCORR  =      T    Harris-Foulkes like correction to forces

   POTIM  = 0.5000    time-step for ionic-motion
   TEIN   =    0.0    initial temperature
   TEBEG  =    0.0;   TEEND  =   0.0 temperature during run
   SMASS  =  -3.00    Nose mass-parameter (am)
   estimated Nose-frequenzy (Omega)   =  0.10E-29 period in steps =****** mass=  -0.391E-26a.u.
   SCALEE = 1.0000    scale energy and forces
   NPACO  =    256;   APACO  = 16.0  distance and # of slots for P.C.
   PSTRESS=    0.0 pullay stress

  Mass of Ions in am
   POMASS = 112.41127.60
  Ionic Valenz
   ZVAL   =  12.00  6.00
  Atomic Wigner-Seitz radii
   RWIGS  =  -1.00 -1.00
  virtual crystal weights 
   VCA    =   1.00  1.00
   NELECT =     588.0000    total number of electrons
   NUPDOWN=      -1.0000    fix difference up-down

 DOS related values:
   EMIN   =  10.00;   EMAX   =-10.00  energy-range for DOS
   EFERMI =   0.00
   ISMEAR =     0;   SIGMA  =   0.05  broadening in eV -4-tet -1-fermi 0-gaus

 Electronic relaxation 2 (details)
   IALGO  =     58    algorithm
   LDIAG  =      T    sub-space diagonalisation (order eigenvalues)
   LSUBROT=      F    optimize rotation matrix (better conditioning)
   TURBO    =      0    0=normal 1=particle mesh
   IRESTART =      0    0=no restart 2=restart with 2 vectors
   NREBOOT  =      0    no. of reboots
   NMIN     =      0    reboot dimension
   EREF     =   0.00    reference energy to select bands
   IMIX   =      4    mixing-type and parameters
     AMIX     =   0.40;   BMIX     =  1.00
     AMIX_MAG =   1.60;   BMIX_MAG =  1.00
     AMIN     =   0.10
     WC   =   100.;   INIMIX=   1;  MIXPRE=   1;  MAXMIX= -45

 Intra band minimization:
   WEIMIN = 0.0000     energy-eigenvalue tresh-hold
   EBREAK =  0.32E-09  absolut break condition
   DEPER  =   0.30     relativ break condition  

   TIME   =   0.40     timestep for ELM

  volume/ion in A,a.u.               =      34.48       232.69
  Fermi-wavevector in a.u.,A,eV,Ry     =   1.048017  1.980464 14.943809  1.098339
  Thomas-Fermi vector in A             =   2.182921

 Write flags
   LWAVE        =      T    write WAVECAR
   LDOWNSAMPLE  =      F    k-point downsampling of WAVECAR
   LCHARG       =      T    write CHGCAR
   LVTOT        =      F    write LOCPOT, total local potential
   LVHAR        =      T    write LOCPOT, Hartree potential only
   LELF         =      F    write electronic localiz. function (ELF)
   LORBIT       =     11    0 simple, 1 ext, 2 COOP (PROOUT), +10 PAW based schemes


 Dipole corrections
   LMONO  =      F    monopole corrections only (constant potential shift)
   LDIPOL =      F    correct potential (dipole corrections)
   IDIPOL =      0    1-x, 2-y, 3-z, 4-all directions 
   EPSILON=  1.0000000 bulk dielectric constant

 Exchange correlation treatment:
   GGA     =    --    GGA type
   LEXCH   =     8    internal setting for exchange type
   VOSKOWN=      0    Vosko Wilk Nusair interpolation
   EXXOEP  =     0    0=HF, 1=EXX-LHF (local Hartree Fock) 2=EXX OEP
   LHFCALC =     T    Hartree Fock is set to
   LSYMGRAD=     F    symmetrize gradient (conserves proper symmetry)
   PRECFOCK=fast      Normal, Fast or Accurate (Low or Medium for compatibility)
   LRHFCALC=     F    long range Hartree Fock
   LRSCOR  =     F    long range correlation only (use DFT for short range part)
   LTHOMAS =     F    Thomas Fermi screening in HF
   LMODELHF=     F    short range full HF, long range fraction AEXX
   ENCUT4O =  -1.0   cutoff for four orbital integrals eV
   LMAXFOCK=     4    L truncation for augmentation on plane wave grid
   LMAXFOCKAE=  -1    L truncation for all-electron charge restoration on plane wave grid
   NMAXFOCKAE=   1    number of basis functions for all-electron charge restoration
   LFOCKAEDFT=     F  apply the AE augmentation even for DFT
   NKREDX  =     1    reduce k-point grid by
   NKREDY  =     1    reduce k-point grid by
   NKREDZ  =     1    reduce k-point grid by
   SHIFTRED=     F    shift reduced grid of Gamma
   HFKIDENT=     F    idential grid for each k-point
   ODDONLY =     F    use only odd q-grid points
   EVENONLY=     F    use only even q-grid points
   HFALPHA =   -1.0000 decay constant for conv. correction
   MCALPHA =    0.0000 extent of test-charge in conv. correction in multipole expansion
   AEXX    =    0.2500 exact exchange contribution
   HFSCREEN=    0.2000 screening length (either q_TF or 0.3 A-1)
   HFSCREENC=   0.2000 screening length for correlation (either q_TF or 0.3 A-1)
   HFRCUT  =    0.0000 spherical cutoff for potential kernel
   ALDAX   =    0.7500 LDA exchange part
   AGGAX   =    0.7500 GGA exchange part
   ALDAC   =    1.0000 LDA correlation
   AGGAC   =    1.0000 GGA correlation
   ENCUTFOCK=  -1.0 apply spherical cutoff to Coloumb kernel
   NBANDSGWLOW=     1    first orbital included in HF term
   NBLOCK_FOCK=    64    blocking factor in FOCK_ACC
 Linear response parameters
   LEPSILON=     F    determine dielectric tensor
   LRPA    =     F    only Hartree local field effects (RPA)
   LNABLA  =     F    use nabla operator in PAW spheres
   LVEL    =     F    velocity operator in full k-point grid
   LINTERFAST=   F  fast interpolation
   KINTER  =     0    interpolate to denser k-point grid
   CSHIFT  =0.1000    complex shift for real part using Kramers Kronig
   OMEGAMAX=  -1.0    maximum frequency
   DEG_THRESHOLD= 0.2000000E-02 threshold for treating states as degnerate
   RTIME   =   -0.100 relaxation time in fs
  (WPLASMAI=    0.000 imaginary part of plasma frequency in eV, 0.658/RTIME)
   DFIELD  = 0.0000000 0.0000000 0.0000000 field for delta impulse in time

 Orbital magnetization related:
   ORBITALMAG=     F  switch on orbital magnetization
   LCHIMAG   =     F  perturbation theory with respect to B field
   DQ        =  0.001000  dq finite difference perturbation B field
   LLRAUG    =     F  two centre corrections for induced B field



--------------------------------------------------------------------------------------------------------


 Static calculation
 charge density and potential will be updated during run
 non collinear spin polarized calculation
 Conjugate gradient for all bands (Freysoldt, et al. PRB 79, 241103 (2009))
 preconditioned conjugated gradient                                        
 perform sub-space diagonalisation
    before iterative eigenvector-optimisation
 modified Broyden-mixing scheme, WC =      100.0
 initial mixing is a Kerker type mixing with AMIX =  0.4000 and BMIX =      1.0000
 Hartree-type preconditioning will be used
 using additional bands          478
 reciprocal scheme for non local part
 use partial core corrections
 no Harris-corrections to forces 
 use gradient corrections 
 use of overlap-Matrix (Vanderbilt PP)
 Gauss-broadening in eV      SIGMA  =   0.05


--------------------------------------------------------------------------------------------------------


  energy-cutoff  :      450.00
  volume of cell :     2241.29
      direct lattice vectors                 reciprocal lattice vectors
    13.086768000  0.000000000  0.000000000     0.076413061  0.000000000  0.000000000
     0.000000000 13.086768000  0.000000000     0.000000000  0.076413061  0.000000000
     0.000000000  0.000000000 13.086768000     0.000000000  0.000000000  0.076413061

  length of vectors
    13.086768000 13.086768000 13.086768000     0.076413061  0.076413061  0.076413061



 k-points in units of 2pi/SCALE and weight: Automatically generated mesh            
   0.00000000  0.00000000  0.00000000       0.125
   0.03820653  0.00000000  0.00000000       0.125
   0.00000000  0.03820653  0.00000000       0.125
   0.03820653  0.03820653  0.00000000       0.125
   0.00000000  0.00000000  0.03820653       0.125
   0.03820653  0.00000000  0.03820653       0.125
   0.00000000  0.03820653  0.03820653       0.125
   0.03820653  0.03820653  0.03820653       0.125

 k-points in reciprocal lattice and weights: Automatically generated mesh            
   0.00000000  0.00000000  0.00000000       0.125
   0.50000000  0.00000000  0.00000000       0.125
   0.00000000  0.50000000  0.00000000       0.125
   0.50000000  0.50000000  0.00000000       0.125
   0.00000000  0.00000000  0.50000000       0.125
   0.50000000  0.00000000  0.50000000       0.125
   0.00000000  0.50000000  0.50000000       0.125
   0.50000000  0.50000000  0.50000000       0.125

 position of ions in fractional coordinates (direct lattice) 
   0.00448500  0.99551500  0.00448500
   0.00124700  0.99875300  0.49695900
   0.00124700  0.50304100  0.00124700
   0.99962500  0.50121800  0.49878200
   0.49695900  0.99875300  0.00124700
   0.49878100  0.00037500  0.49878100
   0.49878100  0.50121900  0.99962500
   0.50052800  0.49947200  0.50052800
   0.00124700  0.25124700  0.25304000
   0.00448600  0.25448500  0.74551500
   0.99962500  0.74878200  0.25121800
   0.00124700  0.74695900  0.74875300
   0.49878200  0.24962500  0.25121900
   0.49696000  0.25124700  0.74875300
   0.50052800  0.75052800  0.24947200
   0.49878100  0.74878100  0.75037500
   0.25121900  0.00037500  0.25121900
   0.25304000  0.99875300  0.74875300
   0.24947200  0.49947200  0.24947200
   0.25121900  0.50121900  0.75037500
   0.74875300  0.99875300  0.25304000
   0.74551400  0.99551500  0.74551500
   0.75037500  0.50121900  0.25121900
   0.74875300  0.50304000  0.74875300
   0.25304000  0.25124700  0.00124700
   0.25121900  0.24962500  0.49878100
   0.25121900  0.74878100  0.99962500
   0.24947200  0.75052800  0.50052800
   0.74551400  0.25448500  0.00448500
   0.74875300  0.25124700  0.49696000
   0.74875300  0.74695900  0.00124700
   0.75037500  0.74878200  0.49878200
   0.87500000  0.12500000  0.87500000
   0.12665600  0.12500000  0.37500000
   0.13277900  0.12500000  0.87500000
   0.12589200  0.62500000  0.37500000
   0.12665600  0.62500000  0.87500000
   0.62334400  0.12500000  0.37500000
   0.61722100  0.12500000  0.87500000
   0.62410800  0.62500000  0.37500000
   0.62334400  0.62500000  0.87500000
   0.12484800  0.37484800  0.12484800
   0.12748800  0.37748800  0.62251200
   0.12748800  0.87251200  0.12748800
   0.12484800  0.87515200  0.62515200
   0.62251200  0.37748800  0.12748800
   0.62515200  0.37484800  0.62515200
   0.62515200  0.87515200  0.12484800
   0.62251200  0.87251200  0.62251200
   0.37500000  0.12500000  0.12665600
   0.37500000  0.12500000  0.62334400
   0.37500000  0.62500000  0.12589200
   0.37500000  0.62500000  0.62410800
   0.87500000  0.12500000  0.13277900
   0.87500000  0.12500000  0.61722100
   0.87500000  0.62500000  0.12665600
   0.87500000  0.62500000  0.62334400
   0.37500000  0.37589200  0.37500000
   0.37500000  0.37665600  0.87500000
   0.37500000  0.87410800  0.37500000
   0.37500000  0.87334400  0.87500000
   0.87500000  0.37665600  0.37500000
   0.87500000  0.38277900  0.87500000
   0.87500000  0.87334400  0.37500000
   0.87500000  0.86722100  0.87500000

 position of ions in cartesian coordinates  (Angst):
   0.05869415 13.02807385  0.05869415
   0.01631920 13.07044880  6.50358714
   0.01631920  6.58318086  0.01631920
  13.08186046  6.55932368  6.52744432
   6.50358714 13.07044880  0.01631920
   6.52743123  0.00490754  6.52743123
   6.52743123  6.55933677 13.08186046
   6.55029381  6.53647419  6.55029381
   0.01631920  3.28801120  3.31147577
   0.05870724  3.33038615  9.75638185
  13.08186046  9.79913632  3.28763168
   0.01631920  9.77527914  9.79875680
   6.52744432  3.26678446  3.28764477
   6.50360023  3.28801120  9.79875680
   6.55029381  9.82198581  3.26478219
   6.52743123  9.79912323  9.81998354
   3.28764477  0.00490754  3.28764477
   3.31147577 13.07044880  9.79875680
   3.26478219  6.53647419  3.26478219
   3.28764477  6.55933677  9.81998354
   9.79875680 13.07044880  3.31147577
   9.75636876 13.02807385  9.75638185
   9.81998354  6.55933677  3.28764477
   9.79875680  6.58316777  9.79875680
   3.31147577  3.28801120  0.01631920
   3.28764477  3.26678446  6.52743123
   3.28764477  9.79912323 13.08186046
   3.26478219  9.82198581  6.55029381
   9.75636876  3.33038615  0.05869415
   9.79875680  3.28801120  6.50360023
   9.79875680  9.77527914  0.01631920
   9.81998354  9.79913632  6.52744432
  11.45092200  1.63584600 11.45092200
   1.65751769  1.63584600  4.90753800
   1.73764797  1.63584600 11.45092200
   1.64751940  8.17923000  4.90753800
   1.65751769  8.17923000 11.45092200
   8.15755831  1.63584600  4.90753800
   8.07742803  1.63584600 11.45092200
   8.16755660  8.17923000  4.90753800
   8.15755831  8.17923000 11.45092200
   1.63385681  4.90554881  1.63385681
   1.66840588  4.94009788  8.14667012
   1.66840588 11.41836212  1.66840588
   1.63385681 11.45291119  8.18121919
   8.14667012  4.94009788  1.66840588
   8.18121919  4.90554881  8.18121919
   8.18121919 11.45291119  1.63385681
   8.14667012 11.41836212  8.14667012
   4.90753800  1.63584600  1.65751769
   4.90753800  1.63584600  8.15755831
   4.90753800  8.17923000  1.64751940
   4.90753800  8.17923000  8.16755660
  11.45092200  1.63584600  1.73764797
  11.45092200  1.63584600  8.07742803
  11.45092200  8.17923000  1.65751769
  11.45092200  8.17923000  8.15755831
   4.90753800  4.91921140  4.90753800
   4.90753800  4.92920969 11.45092200
   4.90753800 11.43924860  4.90753800
   4.90753800 11.42925031 11.45092200
  11.45092200  4.92920969  4.90753800
  11.45092200  5.00933997 11.45092200
  11.45092200 11.42925031  4.90753800
  11.45092200 11.34912003 11.45092200

 Euler angles ALPHA=     0.0000000  BETA=     0.0000000

 transformation matrix from SAXIS to cartesian coordinates
 ---------------------------------------------------------
     1.0000000 m_x    -0.0000000 m_y     0.0000000 m_z
     0.0000000 m_x     1.0000000 m_y     0.0000000 m_z
    -0.0000000 m_x     0.0000000 m_y     1.0000000 m_z

 transformation matrix from cartesian coordinates to SAXIS
 ---------------------------------------------------------
     1.0000000 m_x     0.0000000 m_y    -0.0000000 m_z
    -0.0000000 m_x     1.0000000 m_y     0.0000000 m_z
     0.0000000 m_x     0.0000000 m_y     1.0000000 m_z




--------------------------------------------------------------------------------------------------------


 k-point  1 :   0.0000 0.0000 0.0000  plane waves:   97002
 k-point  2 :   0.5000 0.0000 0.0000  plane waves:   97356
 k-point  3 :   0.0000 0.5000 0.0000  plane waves:   97356
 k-point  4 :   0.5000 0.5000 0.0000  plane waves:   96960
 k-point  5 :   0.0000 0.0000 0.5000  plane waves:   97356
 k-point  6 :   0.5000 0.0000 0.5000  plane waves:   96960
 k-point  7 :   0.0000 0.5000 0.5000  plane waves:   96960
 k-point  8 :   0.5000 0.5000 0.5000  plane waves:   96832

 maximum and minimum number of plane-waves per node :      6146     5998

 maximum number of plane-waves:     97356
 maximum index in each direction: 
   IXMAX=   22   IYMAX=   22   IZMAX=   22
   IXMIN=  -23   IYMIN=  -23   IZMIN=  -23


 parallel 3D FFT for wavefunctions:
    minimum data exchange during FFTs selected (reduces bandwidth)
 parallel 3D FFT for charge:
    minimum data exchange during FFTs selected (reduces bandwidth)


 FFT grid for exact exchange (Hartree Fock) 
  NGX = 48; NGY = 48; NGZ = 48


 Radii for the augmentation spheres in the non-local exchange
 for species   1 augmentation radius   1.444 (default was   1.070)
       energy cutoff for augmentation   1800.0
 for species   2 augmentation radius   1.606 (default was   1.190)
       energy cutoff for augmentation   1800.0

 real space projection operators:
  total allocation   :       9375.20 KBytes
  max/ min on nodes  :        615.43        566.80

 Maximum index for augmentation-charges in exchange           97
  SETUP_FOCK is finished

 total amount of memory used by VASP MPI-rank0   577115. kBytes
=======================================================================

   base      :      30000. kBytes
   nonl-proj :      10259. kBytes
   fftplans  :      34505. kBytes
   grid      :      33619. kBytes
   one-center:        311. kBytes
   HF        :        129. kBytes
   nonlr-proj:       1684. kBytes
   wavefun   :     466608. kBytes

     INWAV:  cpu time    0.0001: real time    0.0006
 Broyden mixing: mesh for mixing (old mesh)
   NGX = 45   NGY = 45   NGZ = 45
  (NGX  =192   NGY  =192   NGZ  =192)
  gives a total of  91125 points

 initial charge density was supplied:
 number of electron     588.0000006 magnetization       0.1811568      0.1812268      0.1812061
 keeping initial charge density in first step


--------------------------------------------------------------------------------------------------------


 Maximum index for augmentation-charges         3305 (set IRDMAX)


--------------------------------------------------------------------------------------------------------


 First call to EWALD:  gamma=   0.135
 Maximum number of real-space cells 3x 3x 3
 Maximum number of reciprocal cells 3x 3x 3

    FEWALD:  cpu time    0.0040: real time    0.0040


--------------------------------------- Iteration      1(   1)  ---------------------------------------


    POTLOK:  cpu time    0.9816: real time    0.9831
    SETDIJ:  cpu time    2.9497: real time    2.9500
    TRIAL :  cpu time   62.7712: real time   62.7761
    CORREC:  cpu time    0.0044: real time    0.0044
    --------------------------------------------
      LOOP:  cpu time   67.0386: real time   67.0701

 eigenvalue-minimisations  : 12360
 total energy-change (2. order) : 0.4614346E+04  (-0.2544581E+05)
 number of electron     588.0000006 magnetization       0.1811568      0.1812268      0.1812061
 augmentation part      588.0000006 magnetization       0.1811568      0.1812268      0.1812061

 Free energy of the ion-electron system (eV)
  ---------------------------------------------------
  alpha Z        PSCENC =      1642.45118531
  Ewald energy   TEWEN  =    -33940.17512420
  -Hartree energ DENC   =    -16807.89420078
  -exchange      EXHF   =         0.00000000
  -V(xc)+E(xc)   XCENC  =      -629.05570962
  PAW double counting   =    116049.36755658  -113998.35028969
  entropy T*S    EENTRO =        -0.02826233
  eigenvalues    EBANDS =      2548.60516551
  atomic energy  EATOM  =     49749.42546357
  ---------------------------------------------------
  free energy    TOTEN  =      4614.34578434 eV

  energy without entropy =     4614.37404668  energy(sigma->0) =     4614.35991551
  exchange ACFDT corr.  =         0.00000000  see jH, gK, PRB 81, 115126


--------------------------------------------------------------------------------------------------------




--------------------------------------- Iteration      1(   2)  ---------------------------------------


    TRIAL :  cpu time   67.8055: real time   67.8145
    CORREC:  cpu time    0.0053: real time    0.0053
    --------------------------------------------
      LOOP:  cpu time   67.8286: real time   67.8527

 eigenvalue-minimisations  : 13504
 total energy-change (2. order) :-0.3454181E+04  (-0.3307247E+04)
 number of electron     588.0000006 magnetization       0.1811568      0.1812268      0.1812061
 augmentation part      588.0000006 magnetization       0.1811568      0.1812268      0.1812061

 Free energy of the ion-electron system (eV)
  ---------------------------------------------------
  alpha Z        PSCENC =      1642.45118531
  Ewald energy   TEWEN  =    -33940.17512420
  -Hartree energ DENC   =    -16807.89420078
  -exchange      EXHF   =         0.00000000
  -V(xc)+E(xc)   XCENC  =      -629.05570962
  PAW double counting   =    116049.36755658  -113998.35028969
  entropy T*S    EENTRO =        -0.00825351
  eigenvalues    EBANDS =      -905.59619546
  atomic energy  EATOM  =     49749.42546357
  ---------------------------------------------------
  free energy    TOTEN  =      1160.16443219 eV

  energy without entropy =     1160.17268570  energy(sigma->0) =     1160.16855895
  exchange ACFDT corr.  =         0.00000000  see jH, gK, PRB 81, 115126


--------------------------------------------------------------------------------------------------------




--------------------------------------- Iteration      1(   3)  ---------------------------------------


    TRIAL :  cpu time   69.6047: real time   69.6294
    CORREC:  cpu time    0.0057: real time    0.0057
    --------------------------------------------
      LOOP:  cpu time   69.6271: real time   69.6729

 eigenvalue-minimisations  : 14064
 total energy-change (2. order) :-0.2257468E+03  (-0.2231985E+03)
 number of electron     588.0000006 magnetization       0.1811568      0.1812268      0.1812061
 augmentation part      588.0000006 magnetization       0.1811568      0.1812268      0.1812061

 Free energy of the ion-electron system (eV)
  ---------------------------------------------------
  alpha Z        PSCENC =      1642.45118531
  Ewald energy   TEWEN  =    -33940.17512420
  -Hartree energ DENC   =    -16807.89420078
  -exchange      EXHF   =         0.00000000
  -V(xc)+E(xc)   XCENC  =      -629.05570962
  PAW double counting   =    116049.36755658  -113998.35028969
  entropy T*S    EENTRO =        -0.01188593
  eigenvalues    EBANDS =     -1131.33937488
  atomic energy  EATOM  =     49749.42546357
  ---------------------------------------------------
  free energy    TOTEN  =       934.41762035 eV

  energy without entropy =      934.42950629  energy(sigma->0) =      934.42356332
  exchange ACFDT corr.  =         0.00000000  see jH, gK, PRB 81, 115126


--------------------------------------------------------------------------------------------------------




--------------------------------------- Iteration      1(   4)  ---------------------------------------


    TRIAL :  cpu time   69.9534: real time   69.9633
    CORREC:  cpu time    0.0055: real time    0.0055
    --------------------------------------------
      LOOP:  cpu time   69.9788: real time   70.0077

 eigenvalue-minimisations  : 14208
 total energy-change (2. order) :-0.5316643E+01  (-0.5301355E+01)
 number of electron     588.0000006 magnetization       0.1811568      0.1812268      0.1812061
 augmentation part      588.0000006 magnetization       0.1811568      0.1812268      0.1812061

 Free energy of the ion-electron system (eV)
  ---------------------------------------------------
  alpha Z        PSCENC =      1642.45118531
  Ewald energy   TEWEN  =    -33940.17512420
  -Hartree energ DENC   =    -16807.89420078
  -exchange      EXHF   =         0.00000000
  -V(xc)+E(xc)   XCENC  =      -629.05570962
  PAW double counting   =    116049.36755658  -113998.35028969
  entropy T*S    EENTRO =        -0.01195394
  eigenvalues    EBANDS =     -1136.65594982
  atomic energy  EATOM  =     49749.42546357
  ---------------------------------------------------
  free energy    TOTEN  =       929.10097741 eV

  energy without entropy =      929.11293135  energy(sigma->0) =      929.10695438
  exchange ACFDT corr.  =         0.00000000  see jH, gK, PRB 81, 115126


--------------------------------------------------------------------------------------------------------




--------------------------------------- Iteration      1(   5)  ---------------------------------------


    TRIAL :  cpu time   75.4118: real time   75.4405
    CORREC:  cpu time    0.0056: real time    0.0056
    CHARGE:  cpu time    3.9190: real time    3.9194
    --------------------------------------------
      LOOP:  cpu time   79.3536: real time   79.4032

 eigenvalue-minimisations  : 15680
 total energy-change (2. order) :-0.1117923E+00  (-0.1115821E+00)
 number of electron     588.0000006 magnetization       0.0489534      0.0499679      0.0495918
 augmentation part      148.9018950 magnetization       0.0417819      0.0416263      0.0417862

 Free energy of the ion-electron system (eV)
  ---------------------------------------------------
  alpha Z        PSCENC =      1642.45118531
  Ewald energy   TEWEN  =    -33940.17512420
  -Hartree energ DENC   =    -16807.89420078
  -exchange      EXHF   =         0.00000000
  -V(xc)+E(xc)   XCENC  =      -629.05570962
  PAW double counting   =    116049.36755658  -113998.35028969
  entropy T*S    EENTRO =        -0.01196326
  eigenvalues    EBANDS =     -1136.76773280
  atomic energy  EATOM  =     49749.42546357
  ---------------------------------------------------
  free energy    TOTEN  =       928.98918511 eV

  energy without entropy =      929.00114836  energy(sigma->0) =      928.99516673
  exchange ACFDT corr.  =         0.00000000  see jH, gK, PRB 81, 115126


--------------------------------------------------------------------------------------------------------




--------------------------------------- Iteration      1(   6)  ---------------------------------------


    POTLOK:  cpu time    0.9618: real time    0.9619
    SETDIJ:  cpu time    2.8165: real time    2.8168
    TRIAL :  cpu time 5517.3017: real time 5518.3692
    CORREC:  cpu time 5492.0669: real time 5493.2434
    EDDIAG:  cpu time 5487.9553: real time 5489.2672
    CHARGE:  cpu time    3.7155: real time    3.7165
    --------------------------------------------
      LOOP:  cpu time16504.8359: real time16508.4138

 eigenvalue-minimisations  :     0
 total energy-change (2. order) :-0.1097582E+04  (-0.2288526E+02)
 number of electron     588.0000006 magnetization       0.0411449      0.0418100      0.0416592
 augmentation part      154.2356649 magnetization       0.0270498      0.0259161      0.0266134

 Free energy of the ion-electron system (eV)
  ---------------------------------------------------
  alpha Z        PSCENC =      1642.45118531
  Ewald energy   TEWEN  =    -33940.17512420
  -Hartree energ DENC   =    -16095.23869854
  -exchange      EXHF   =      1131.00029988
  -V(xc)+E(xc)   XCENC  =      -647.00844855
  PAW double counting   =    119155.17107458  -117087.06253890
  entropy T*S    EENTRO =        -0.01114492
  eigenvalues    EBANDS =     -4054.96462974
  atomic energy  EATOM  =     49749.42546357
  ---------------------------------------------------
  free energy    TOTEN  =      -168.59265324 eV

  energy without entropy =     -168.58150832  energy(sigma->0) =     -168.58708078
  exchange ACFDT corr.  =        -0.01659259  see jH, gK, PRB 81, 115126


--------------------------------------------------------------------------------------------------------


  average scaling for gradient   0.9509


 average (electrostatic) potential at core
  the test charge radii are     1.0698  1.1897
  (the norm of the test charge is              1.0000)
       1 -31.5409       2 -31.8805       3 -31.8815       4 -32.1866       5 -31.8807
       6 -32.1857       7 -32.1847       8 -32.3566       9 -31.8805      10 -31.5428
      11 -32.1865      12 -31.8825      13 -32.1874      14 -31.8804      15 -32.3549
      16 -32.1868      17 -32.1855      18 -31.8800      19 -32.3566      20 -32.1883
      21 -31.8816      22 -31.5413      23 -32.1858      24 -31.8817      25 -31.8806
      26 -32.1863      27 -32.1873      28 -32.3552      29 -31.5401      30 -31.8833
      31 -31.8816      32 -32.1880      33 -29.7179      34 -88.4179      35 -87.9474
      36 -88.6767      37 -88.4189      38 -88.4193      39 -87.9486      40 -88.6778
      41 -88.4191      42 -88.3557      43 -88.4614      44 -88.4605      45 -88.3559
      46 -88.4606      47 -88.3564      48 -88.3559      49 -88.4618      50 -88.4180
      51 -88.4190      52 -88.6769      53 -88.6769      54 -87.9481      55 -87.9492
      56 -88.4191      57 -88.4200      58 -88.6772      59 -88.4177      60 -88.6770
      61 -88.4183      62 -88.4181      63 -87.9498      64 -88.4189      65 -87.9490



 E-fermi :   4.6484     XC(G=0):  -7.3096     alpha+bet : -7.2837


 k-point     1 :       0.0000    0.0000    0.0000
  band No.  band energies     occupation 
      1     -10.7983      1.00000
      2     -10.7916      1.00000
      3     -10.5620      1.00000
      4     -10.5618      1.00000
      5     -10.5617      1.00000
      6     -10.5545      1.00000
      7     -10.5543      1.00000
      8     -10.5542      1.00000
      9     -10.5346      1.00000
     10     -10.5344      1.00000
     11     -10.5270      1.00000
     12     -10.5268      1.00000
     13     -10.4936      1.00000
     14     -10.4858      1.00000
     15     -10.4019      1.00000
     16     -10.4018      1.00000
     17     -10.4013      1.00000
     18     -10.3942      1.00000
     19     -10.3940      1.00000
     20     -10.3934      1.00000
     21     -10.3586      1.00000
     22     -10.3583      1.00000
     23     -10.3507      1.00000
     24     -10.3503      1.00000
     25     -10.3213      1.00000
     26     -10.3210      1.00000
     27     -10.3205      1.00000
     28     -10.3138      1.00000
     29     -10.3132      1.00000
     30     -10.3127      1.00000
     31     -10.3024      1.00000
     32     -10.2964      1.00000
     33     -10.2963      1.00000
     34     -10.2955      1.00000
     35     -10.2946      1.00000
     36     -10.2888      1.00000
     37     -10.2887      1.00000
     38     -10.2883      1.00000
     39     -10.2462      1.00000
     40     -10.2459      1.00000
     41     -10.2380      1.00000
     42     -10.2377      1.00000
     43     -10.1961      1.00000
     44     -10.1948      1.00000
     45     -10.1895      1.00000
     46     -10.1871      1.00000
     47     -10.1835      1.00000
     48     -10.1815      1.00000
     49     -10.1789      1.00000
     50     -10.1755      1.00000
     51     -10.1754      1.00000
     52     -10.1675      1.00000
     53      -9.9274      1.00000
     54      -9.9163      1.00000
     55      -9.8285      1.00000
     56      -9.8279      1.00000
     57      -9.8273      1.00000
     58      -9.8170      1.00000
     59      -9.8163      1.00000
     60      -9.8157      1.00000
     61      -9.7835      1.00000
     62      -9.7829      1.00000
     63      -9.7720      1.00000
     64      -9.7714      1.00000
     65      -7.9068      1.00000
     66      -7.9064      1.00000
     67      -7.9061      1.00000
     68      -7.9060      1.00000
     69      -7.8986      1.00000
     70      -7.8984      1.00000
     71      -7.8982      1.00000
     72      -7.8977      1.00000
     73      -7.8420      1.00000
     74      -7.8416      1.00000
     75      -7.8396      1.00000
     76      -7.8392      1.00000
     77      -7.8317      1.00000
     78      -7.8316      1.00000
     79      -7.8314      1.00000
     80      -7.8312      1.00000
     81      -7.7763      1.00000
     82      -7.7760      1.00000
     83      -7.7758      1.00000
     84      -7.7756      1.00000
     85      -7.7592      1.00000
     86      -7.7592      1.00000
     87      -7.7460      1.00000
     88      -7.7459      1.00000
     89      -7.7456      1.00000
     90      -7.7454      1.00000
     91      -7.7391      1.00000
     92      -7.7389      1.00000
     93      -7.7372      1.00000
     94      -7.7371      1.00000
     95      -7.7369      1.00000
     96      -7.7369      1.00000
     97      -7.7367      1.00000
     98      -7.7364      1.00000
     99      -7.7187      1.00000
    100      -7.7186      1.00000
    101      -7.7185      1.00000
    102      -7.7184      1.00000
    103      -7.7110      1.00000
    104      -7.7109      1.00000
    105      -7.7106      1.00000
    106      -7.7105      1.00000
    107      -7.7043      1.00000
    108      -7.7041      1.00000
    109      -7.6541      1.00000
    110      -7.6540      1.00000
    111      -7.6538      1.00000
    112      -7.6537      1.00000
    113      -7.6318      1.00000
    114      -7.6317      1.00000
    115      -7.6224      1.00000
    116      -7.6223      1.00000
    117      -7.6220      1.00000
    118      -7.6219      1.00000
    119      -7.6213      1.00000
    120      -7.6211      1.00000
    121      -7.6048      1.00000
    122      -7.6046      1.00000
    123      -7.5864      1.00000
    124      -7.5859      1.00000
    125      -7.5290      1.00000
    126      -7.5288      1.00000
    127      -7.5286      1.00000
    128      -7.5284      1.00000
    129      -7.4918      1.00000
    130      -7.4914      1.00000
    131      -7.4914      1.00000
    132      -7.4911      1.00000
    133      -7.4616      1.00000
    134      -7.4616      1.00000
    135      -7.4605      1.00000
    136      -7.4603      1.00000
    137      -7.4601      1.00000
    138      -7.4599      1.00000
    139      -7.4554      1.00000
    140      -7.4553      1.00000
    141      -7.4550      1.00000
    142      -7.4549      1.00000
    143      -7.4535      1.00000
    144      -7.4532      1.00000
    145      -7.4497      1.00000
    146      -7.4495      1.00000
    147      -7.4225      1.00000
    148      -7.4223      1.00000
    149      -7.4221      1.00000
    150      -7.4220      1.00000
    151      -7.4196      1.00000
    152      -7.4195      1.00000
    153      -7.4192      1.00000
    154      -7.4190      1.00000
    155      -7.4024      1.00000
    156      -7.4022      1.00000
    157      -7.3639      1.00000
    158      -7.3636      1.00000
    159      -7.3477      1.00000
    160      -7.3476      1.00000
    161      -7.3474      1.00000
    162      -7.3473      1.00000
    163      -7.3198      1.00000
    164      -7.3196      1.00000
    165      -7.3068      1.00000
    166      -7.3066      1.00000
    167      -7.3063      1.00000
    168      -7.3061      1.00000
    169      -7.2854      1.00000
    170      -7.2851      1.00000
    171      -7.2788      1.00000
    172      -7.2786      1.00000
    173      -7.2783      1.00000
    174      -7.2782      1.00000
    175      -7.2781      1.00000
    176      -7.2779      1.00000
    177      -7.2540      1.00000
    178      -7.2539      1.00000
    179      -7.2374      1.00000
    180      -7.2372      1.00000
    181      -7.2055      1.00000
    182      -7.2054      1.00000
    183      -7.2053      1.00000
    184      -7.2052      1.00000
    185      -7.1701      1.00000
    186      -7.1698      1.00000
    187      -7.1697      1.00000
    188      -7.1696      1.00000
    189      -7.1460      1.00000
    190      -7.1456      1.00000
    191      -7.1427      1.00000
    192      -7.1415      1.00000
    193      -7.1411      1.00000
    194      -7.1407      1.00000
    195      -7.1406      1.00000
    196      -7.1402      1.00000
    197      -7.1279      1.00000
    198      -7.1278      1.00000
    199      -7.1276      1.00000
    200      -7.1274      1.00000
    201      -7.1094      1.00000
    202      -7.1094      1.00000
    203      -7.1093      1.00000
    204      -7.1092      1.00000
    205      -7.1067      1.00000
    206      -7.1063      1.00000
    207      -7.1019      1.00000
    208      -7.1015      1.00000
    209      -7.0940      1.00000
    210      -7.0936      1.00000
    211      -7.0896      1.00000
    212      -7.0895      1.00000
    213      -7.0894      1.00000
    214      -7.0893      1.00000
    215      -7.0796      1.00000
    216      -7.0796      1.00000
    217      -7.0789      1.00000
    218      -7.0788      1.00000
    219      -7.0687      1.00000
    220      -7.0685      1.00000
    221      -7.0575      1.00000
    222      -7.0574      1.00000
    223      -7.0574      1.00000
    224      -7.0573      1.00000
    225      -7.0546      1.00000
    226      -7.0545      1.00000
    227      -7.0385      1.00000
    228      -7.0384      1.00000
    229      -7.0383      1.00000
    230      -7.0382      1.00000
    231      -7.0258      1.00000
    232      -7.0257      1.00000
    233      -7.0256      1.00000
    234      -7.0255      1.00000
    235      -7.0196      1.00000
    236      -7.0194      1.00000
    237      -7.0193      1.00000
    238      -7.0192      1.00000
    239      -7.0166      1.00000
    240      -7.0164      1.00000
    241      -7.0037      1.00000
    242      -7.0036      1.00000
    243      -6.9822      1.00000
    244      -6.9822      1.00000
    245      -6.9819      1.00000
    246      -6.9819      1.00000
    247      -6.9791      1.00000
    248      -6.9790      1.00000
    249      -6.9778      1.00000
    250      -6.9776      1.00000
    251      -6.9773      1.00000
    252      -6.9771      1.00000
    253      -6.9626      1.00000
    254      -6.9626      1.00000
    255      -6.9624      1.00000
    256      -6.9623      1.00000
    257      -6.9534      1.00000
    258      -6.9533      1.00000
    259      -6.9364      1.00000
    260      -6.9363      1.00000
    261      -6.9361      1.00000
    262      -6.9360      1.00000
    263      -6.9312      1.00000
    264      -6.9311      1.00000
    265      -6.9163      1.00000
    266      -6.9162      1.00000
    267      -6.9160      1.00000
    268      -6.9160      1.00000
    269      -6.9058      1.00000
    270      -6.9052      1.00000
    271      -6.8967      1.00000
    272      -6.8966      1.00000
    273      -6.8539      1.00000
    274      -6.8536      1.00000
    275      -6.8536      1.00000
    276      -6.8533      1.00000
    277      -6.8336      1.00000
    278      -6.8335      1.00000
    279      -6.8332      1.00000
    280      -6.8330      1.00000
    281      -6.8092      1.00000
    282      -6.8091      1.00000
    283      -6.8088      1.00000
    284      -6.8086      1.00000
    285      -6.8021      1.00000
    286      -6.8017      1.00000
    287      -6.7815      1.00000
    288      -6.7813      1.00000
    289      -6.7785      1.00000
    290      -6.7783      1.00000
    291      -6.7782      1.00000
    292      -6.7780      1.00000
    293      -6.7666      1.00000
    294      -6.7657      1.00000
    295      -6.7488      1.00000
    296      -6.7487      1.00000
    297      -6.7485      1.00000
    298      -6.7483      1.00000
    299      -6.7476      1.00000
    300      -6.7472      1.00000
    301      -6.7465      1.00000
    302      -6.7461      1.00000
    303      -6.7346      1.00000
    304      -6.7342      1.00000
    305      -6.7332      1.00000
    306      -6.7331      1.00000
    307      -6.7330      1.00000
    308      -6.7328      1.00000
    309      -6.7211      1.00000
    310      -6.7209      1.00000
    311      -6.7207      1.00000
    312      -6.7205      1.00000
    313      -6.7186      1.00000
    314      -6.7184      1.00000
    315      -6.7001      1.00000
    316      -6.6998      1.00000
    317      -6.6996      1.00000
    318      -6.6994      1.00000
    319      -6.6749      1.00000
    320      -6.6745      1.00000
    321      -6.6744      1.00000
    322      -6.6740      1.00000
    323      -6.6662      1.00000
    324      -6.6660      1.00000
    325      -6.6659      1.00000
    326      -6.6656      1.00000
    327      -6.6520      1.00000
    328      -6.6519      1.00000
    329      -6.6214      1.00000
    330      -6.6210      1.00000
    331      -6.6187      1.00000
    332      -6.6185      1.00000
    333      -6.6001      1.00000
    334      -6.5999      1.00000
    335      -6.5998      1.00000
    336      -6.5997      1.00000
    337      -6.5735      1.00000
    338      -6.5733      1.00000
    339      -6.5732      1.00000
    340      -6.5729      1.00000
    341      -6.5660      1.00000
    342      -6.5658      1.00000
    343      -6.5655      1.00000
    344      -6.5654      1.00000
    345      -6.5220      1.00000
    346      -6.5213      1.00000
    347      -6.4774      1.00000
    348      -6.4770      1.00000
    349      -6.4760      1.00000
    350      -6.4756      1.00000
    351      -6.4533      1.00000
    352      -6.4533      1.00000
    353      -6.4506      1.00000
    354      -6.4501      1.00000
    355      -6.4500      1.00000
    356      -6.4496      1.00000
    357      -6.4319      1.00000
    358      -6.4303      1.00000
    359      -6.4006      1.00000
    360      -6.3999      1.00000
    361      -6.3954      1.00000
    362      -6.3950      1.00000
    363      -6.3858      1.00000
    364      -6.3855      1.00000
    365      -6.3851      1.00000
    366      -6.3849      1.00000
    367      -6.3531      1.00000
    368      -6.3526      1.00000
    369      -6.3526      1.00000
    370      -6.3521      1.00000
    371      -6.3330      1.00000
    372      -6.3320      1.00000
    373      -6.3282      1.00000
    374      -6.3261      1.00000
    375      -6.2673      1.00000
    376      -6.2667      1.00000
    377      -6.2663      1.00000
    378      -6.2659      1.00000
    379      -6.2136      1.00000
    380      -6.2132      1.00000
    381      -6.1415      1.00000
    382      -6.1413      1.00000
    383      -6.1398      1.00000
    384      -6.1396      1.00000
    385      -5.3633      1.00000
    386      -5.3623      1.00000
    387      -5.3612      1.00000
    388      -5.3600      1.00000
    389      -4.7386      1.00000
    390      -4.7367      1.00000
    391      -4.7332      1.00000
    392      -4.7323      1.00000
    393      -4.7297      1.00000
    394      -4.7295      1.00000
    395      -3.2568      1.00000
    396      -3.2531      1.00000
    397      -3.1279      1.00000
    398      -3.1279      1.00000
    399      -3.1279      1.00000
    400      -3.1278      1.00000
    401      -3.1177      1.00000
    402      -3.1177      1.00000
    403      -3.0819      1.00000
    404      -3.0817      1.00000
    405      -3.0816      1.00000
    406      -3.0814      1.00000
    407      -3.0063      1.00000
    408      -3.0060      1.00000
    409      -2.9726      1.00000
    410      -2.9725      1.00000
    411      -2.8453      1.00000
    412      -2.8451      1.00000
    413      -2.8449      1.00000
    414      -2.8446      1.00000
    415      -2.6666      1.00000
    416      -2.6664      1.00000
    417      -2.6663      1.00000
    418      -2.6660      1.00000
    419      -2.6087      1.00000
    420      -2.6087      1.00000
    421      -2.5835      1.00000
    422      -2.5772      1.00000
    423      -2.4456      1.00000
    424      -2.4455      1.00000
    425      -2.4449      1.00000
    426      -2.4448      1.00000
    427      -2.4431      1.00000
    428      -2.4424      1.00000
    429      -2.3420      1.00000
    430      -2.3420      1.00000
    431      -2.3418      1.00000
    432      -2.3416      1.00000
    433      -2.3105      1.00000
    434      -2.3098      1.00000
    435      -2.2337      1.00000
    436      -2.2335      1.00000
    437      -2.2332      1.00000
    438      -2.2329      1.00000
    439      -2.1761      1.00000
    440      -2.1757      1.00000
    441      -2.1753      1.00000
    442      -2.1748      1.00000
    443      -2.1044      1.00000
    444      -2.1039      1.00000
    445      -1.4011      1.00000
    446      -1.3943      1.00000
    447      -1.2975      1.00000
    448      -1.2972      1.00000
    449      -1.2958      1.00000
    450      -1.2955      1.00000
    451      -1.2706      1.00000
    452      -1.2702      1.00000
    453      -1.2363      1.00000
    454      -1.2362      1.00000
    455      -1.2336      1.00000
    456      -1.2334      1.00000
    457      -1.2176      1.00000
    458      -1.2167      1.00000
    459      -1.2167      1.00000
    460      -1.2152      1.00000
    461      -1.2062      1.00000
    462      -1.2049      1.00000
    463      -0.9857      1.00000
    464      -0.9798      1.00000
    465      -0.9102      1.00000
    466      -0.9097      1.00000
    467      -0.9092      1.00000
    468      -0.9085      1.00000
    469      -0.9054      1.00000
    470      -0.9030      1.00000
    471      -0.8519      1.00000
    472      -0.8513      1.00000
    473      -0.8504      1.00000
    474      -0.8494      1.00000
    475      -0.8490      1.00000
    476      -0.8484      1.00000
    477      -0.8183      1.00000
    478      -0.8166      1.00000
    479      -0.7798      1.00000
    480      -0.7793      1.00000
    481      -0.7783      1.00000
    482      -0.7777      1.00000
    483      -0.7633      1.00000
    484      -0.7614      1.00000
    485      -0.7603      1.00000
    486      -0.7586      1.00000
    487      -0.7376      1.00000
    488      -0.7357      1.00000
    489      -0.7205      1.00000
    490      -0.7204      1.00000
    491      -0.7171      1.00000
    492      -0.7167      1.00000
    493      -0.6853      1.00000
    494      -0.6827      1.00000
    495      -0.6345      1.00000
    496      -0.6327      1.00000
    497      -0.6311      1.00000
    498      -0.6305      1.00000
    499      -0.5928      1.00000
    500      -0.5917      1.00000
    501      -0.5677      1.00000
    502      -0.5670      1.00000
    503      -0.5661      1.00000
    504      -0.5654      1.00000
    505      -0.5035      1.00000
    506      -0.5024      1.00000
    507      -0.5019      1.00000
    508      -0.5007      1.00000
    509      -0.4598      1.00000
    510      -0.4582      1.00000
    511      -0.2917      1.00000
    512      -0.2914      1.00000
    513      -0.2891      1.00000
    514      -0.2886      1.00000
    515      -0.2331      1.00000
    516      -0.2310      1.00000
    517       0.1313      1.00000
    518       0.1347      1.00000
    519       0.1511      1.00000
    520       0.1536      1.00000
    521       0.1717      1.00000
    522       0.1720      1.00000
    523       0.1746      1.00000
    524       0.1748      1.00000
    525       0.2061      1.00000
    526       0.2063      1.00000
    527       0.2088      1.00000
    528       0.2090      1.00000
    529       0.3280      1.00000
    530       0.3312      1.00000
    531       0.3362      1.00000
    532       0.3368      1.00000
    533       0.3399      1.00000
    534       0.3403      1.00000
    535       0.3782      1.00000
    536       0.3811      1.00000
    537       0.5315      1.00000
    538       0.5316      1.00000
    539       0.5340      1.00000
    540       0.5342      1.00000
    541       0.5498      1.00000
    542       0.5503      1.00000
    543       0.5519      1.00000
    544       0.5525      1.00000
    545       0.5601      1.00000
    546       0.5628      1.00000
    547       0.5980      1.00000
    548       0.6016      1.00000
    549       0.6180      1.00000
    550       0.6201      1.00000
    551       0.6209      1.00000
    552       0.6228      1.00000
    553       0.6324      1.00000
    554       0.6350      1.00000
    555       0.6619      1.00000
    556       0.6629      1.00000
    557       0.6631      1.00000
    558       0.6684      1.00000
    559       0.6694      1.00000
    560       0.6706      1.00000
    561       0.6836      1.00000
    562       0.6851      1.00000
    563       0.6877      1.00000
    564       0.6904      1.00000
    565       0.7124      1.00000
    566       0.7145      1.00000
    567       0.7462      1.00000
    568       0.7464      1.00000
    569       0.7489      1.00000
    570       0.7492      1.00000
    571       0.7653      1.00000
    572       0.7687      1.00000
    573       0.8717      1.00000
    574       0.8755      1.00000
    575       0.9997      1.00000
    576       1.0001      1.00000
    577       1.0005      1.00000
    578       1.0008      1.00000
    579       1.0848      1.00000
    580       1.0851      1.00000
    581       1.0934      1.00000
    582       1.0937      1.00000
    583       1.7387      1.00000
    584       1.7427      1.00000
    585       1.7466      1.00000
    586       1.7506      1.00000
    587       2.7295      1.00000
    588       2.7346      1.00000
    589       3.6846      0.50377
    590       3.7055      0.48291
    591       4.0881      0.00000
    592       4.0887      0.00000
    593       4.0894      0.00000
    594       4.0943      0.00000
    595       4.0951      0.00000
    596       4.0960      0.00000
    597       4.1438      0.00000
    598       4.1489      0.00000
    599       4.8787      0.00000
    600       4.8787      0.00000
    601       4.8871      0.00000
    602       4.8871      0.00000
    603       5.0472      0.00000
    604       5.0478      0.00000
    605       5.0482      0.00000
    606       5.0488      0.00000
    607       5.0496      0.00000
    608       5.0516      0.00000
    609       5.1499      0.00000
    610       5.1528      0.00000
    611       5.2430      0.00000
    612       5.2473      0.00000
    613       5.2615      0.00000
    614       5.2616      0.00000
    615       5.2644      0.00000
    616       5.2779      0.00000
    617       5.2904      0.00000
    618       5.2952      0.00000
    619       5.4119      0.00000
    620       5.4141      0.00000
    621       5.4143      0.00000
    622       5.4155      0.00000
    623       5.4316      0.00000
    624       5.4363      0.00000
    625       5.4440      0.00000
    626       5.4451      0.00000
    627       5.4454      0.00000
    628       5.4511      0.00000
    629       5.4527      0.00000
    630       5.4533      0.00000
    631       5.4813      0.00000
    632       5.4813      0.00000
    633       5.4830      0.00000
    634       5.4862      0.00000
    635       5.4862      0.00000
    636       5.4871      0.00000
    637       5.4887      0.00000
    638       5.4901      0.00000
    639       5.4938      0.00000
    640       5.5013      0.00000
    641       5.5095      0.00000
    642       5.5096      0.00000
    643       5.5119      0.00000
    644       5.5125      0.00000
    645       5.5305      0.00000
    646       5.5355      0.00000
    647       5.5447      0.00000
    648       5.5520      0.00000
    649       5.5642      0.00000
    650       5.5667      0.00000
    651       5.5817      0.00000
    652       5.5855      0.00000
    653       5.5891      0.00000
    654       5.5895      0.00000
    655       5.5926      0.00000
    656       5.5940      0.00000
    657       6.2731      0.00000
    658       6.2732      0.00000
    659       6.4432      0.00000
    660       6.4434      0.00000
    661       6.4435      0.00000
    662       6.4436      0.00000
    663       6.5478      0.00000
    664       6.5484      0.00000
    665       6.8526      0.00000
    666       6.8542      0.00000
    667       6.9145      0.00000
    668       6.9161      0.00000
    669       6.9162      0.00000
    670       6.9165      0.00000
    671       6.9166      0.00000
    672       6.9189      0.00000
    673       6.9197      0.00000
    674       6.9215      0.00000
    675       6.9564      0.00000
    676       6.9590      0.00000
    677       6.9754      0.00000
    678       6.9770      0.00000
    679       6.9781      0.00000
    680       6.9816      0.00000
    681       6.9868      0.00000
    682       6.9910      0.00000
    683       6.9912      0.00000
    684       6.9922      0.00000
    685       7.1184      0.00000
    686       7.1245      0.00000
    687       7.1316      0.00000
    688       7.1323      0.00000
    689       7.1914      0.00000
    690       7.1950      0.00000
    691       7.2700      0.00000
    692       7.2725      0.00000
    693       7.2767      0.00000
    694       7.2793      0.00000
    695       7.4504      0.00000
    696       7.4512      0.00000
    697       7.4557      0.00000
    698       7.4561      0.00000
    699       7.4757      0.00000
    700       7.5144      0.00000
    701       7.5208      0.00000
    702       7.5237      0.00000
    703       7.5247      0.00000
    704       7.5252      0.00000
    705       7.5453      0.00000
    706       7.5643      0.00000
    707       7.5669      0.00000
    708       7.5840      0.00000
    709       7.5885      0.00000
    710       7.5885      0.00000
    711       7.5961      0.00000
    712       7.5961      0.00000
    713       7.6301      0.00000
    714       7.6362      0.00000
    715       7.6389      0.00000
    716       7.6401      0.00000
    717       7.6407      0.00000
    718       7.6480      0.00000
    719       7.6598      0.00000
    720       7.6599      0.00000
    721       7.6619      0.00000
    722       7.6650      0.00000
    723       7.6804      0.00000
    724       7.6832      0.00000
    725       7.6838      0.00000
    726       7.6838      0.00000
    727       7.8069      0.00000
    728       7.8081      0.00000
    729       7.8233      0.00000
    730       7.8251      0.00000
    731       7.8290      0.00000
    732       7.8319      0.00000
    733       7.8359      0.00000
    734       7.8437      0.00000
    735       7.8502      0.00000
    736       7.8534      0.00000
    737       7.8582      0.00000
    738       7.8753      0.00000
    739       7.8772      0.00000
    740       7.8934      0.00000
    741       7.9208      0.00000
    742       7.9212      0.00000
    743       7.9307      0.00000
    744       7.9402      0.00000
    745       7.9432      0.00000
    746       7.9433      0.00000
    747       7.9443      0.00000
    748       7.9543      0.00000
    749       7.9558      0.00000
    750       7.9599      0.00000
    751       8.0184      0.00000
    752       8.0350      0.00000
    753       8.0539      0.00000
    754       8.0722      0.00000
    755       8.0792      0.00000
    756       8.0993      0.00000
    757       8.1229      0.00000
    758       8.1293      0.00000
    759       8.1724      0.00000
    760       8.1959      0.00000
    761       8.2155      0.00000
    762       8.2327      0.00000
    763       8.2554      0.00000
    764       8.2708      0.00000
    765       8.2748      0.00000
    766       8.3358      0.00000
    767       8.3546      0.00000
    768       8.3595      0.00000
    769       8.3894      0.00000
    770       8.3980      0.00000
    771       8.4119      0.00000
    772       8.4648      0.00000

 k-point     2 :       0.5000    0.0000    0.0000
  band No.  band energies     occupation 
      1     -10.7634      1.00000
      2     -10.7562      1.00000
      3     -10.6529      1.00000
      4     -10.6455      1.00000
      5     -10.5594      1.00000
      6     -10.5591      1.00000
      7     -10.5518      1.00000
      8     -10.5515      1.00000
      9     -10.5292      1.00000
     10     -10.5215      1.00000
     11     -10.5101      1.00000
     12     -10.5023      1.00000
     13     -10.4554      1.00000
     14     -10.4475      1.00000
     15     -10.4267      1.00000
     16     -10.4189      1.00000
     17     -10.3976      1.00000
     18     -10.3957      1.00000
     19     -10.3893      1.00000
     20     -10.3875      1.00000
     21     -10.3787      1.00000
     22     -10.3708      1.00000
     23     -10.3554      1.00000
     24     -10.3541      1.00000
     25     -10.3473      1.00000
     26     -10.3460      1.00000
     27     -10.3145      1.00000
     28     -10.3121      1.00000
     29     -10.3102      1.00000
     30     -10.3066      1.00000
     31     -10.3043      1.00000
     32     -10.3024      1.00000
     33     -10.2818      1.00000
     34     -10.2750      1.00000
     35     -10.2738      1.00000
     36     -10.2674      1.00000
     37     -10.2671      1.00000
     38     -10.2645      1.00000
     39     -10.2578      1.00000
     40     -10.2549      1.00000
     41     -10.2152      1.00000
     42     -10.2119      1.00000
     43     -10.2074      1.00000
     44     -10.2051      1.00000
     45     -10.1959      1.00000
     46     -10.1948      1.00000
     47     -10.1913      1.00000
     48     -10.1883      1.00000
     49     -10.1868      1.00000
     50     -10.1836      1.00000
     51     -10.1770      1.00000
     52     -10.1694      1.00000
     53      -9.9293      1.00000
     54      -9.9181      1.00000
     55      -9.8290      1.00000
     56      -9.8284      1.00000
     57      -9.8176      1.00000
     58      -9.8169      1.00000
     59      -9.8157      1.00000
     60      -9.8044      1.00000
     61      -9.7930      1.00000
     62      -9.7838      1.00000
     63      -9.7816      1.00000
     64      -9.7724      1.00000
     65      -7.9074      1.00000
     66      -7.9071      1.00000
     67      -7.9066      1.00000
     68      -7.9064      1.00000
     69      -7.8996      1.00000
     70      -7.8991      1.00000
     71      -7.8976      1.00000
     72      -7.8972      1.00000
     73      -7.8418      1.00000
     74      -7.8414      1.00000
     75      -7.8395      1.00000
     76      -7.8392      1.00000
     77      -7.8302      1.00000
     78      -7.8299      1.00000
     79      -7.8294      1.00000
     80      -7.8291      1.00000
     81      -7.7748      1.00000
     82      -7.7745      1.00000
     83      -7.7710      1.00000
     84      -7.7708      1.00000
     85      -7.7642      1.00000
     86      -7.7641      1.00000
     87      -7.7576      1.00000
     88      -7.7575      1.00000
     89      -7.7489      1.00000
     90      -7.7487      1.00000
     91      -7.7410      1.00000
     92      -7.7408      1.00000
     93      -7.7393      1.00000
     94      -7.7391      1.00000
     95      -7.7367      1.00000
     96      -7.7366      1.00000
     97      -7.7362      1.00000
     98      -7.7360      1.00000
     99      -7.7239      1.00000
    100      -7.7238      1.00000
    101      -7.7208      1.00000
    102      -7.7206      1.00000
    103      -7.7099      1.00000
    104      -7.7097      1.00000
    105      -7.6934      1.00000
    106      -7.6933      1.00000
    107      -7.6905      1.00000
    108      -7.6903      1.00000
    109      -7.6719      1.00000
[...]
 l=   3
     0.0000000     0.0000000     0.0000000     0.0000000     0.0000000     0.0000000     0.0000000
     0.0000000     0.0000000     0.0000000     0.0000000     0.0000000     0.0000000     0.0000000
     0.0000000     0.0000000     0.0000000     0.0000000     0.0000000     0.0000000     0.0000000
     0.0000000     0.0000000     0.0000000     0.0000000     0.0000000     0.0000000     0.0000000
     0.0000000     0.0000000     0.0000000     0.0000000     0.0000000     0.0000000     0.0000000
     0.0000000     0.0000000     0.0000000     0.0000000     0.0000000     0.0000000     0.0000000
     0.0000000     0.0000000     0.0000000     0.0000000     0.0000000     0.0000000     0.0000000

 Ion:   61  E_soc:     -0.1789593
 l=   1
     0.0000000    -0.0297187    -0.0298088
    -0.0297187     0.0000000    -0.0297274
    -0.0298088    -0.0297274     0.0000000
 l=   2
     0.0000000    -0.0000279     0.0000000    -0.0000271    -0.0000506
    -0.0000279     0.0000000    -0.0000344    -0.0000284    -0.0000113
     0.0000000    -0.0000344     0.0000000    -0.0000340     0.0000000
    -0.0000271    -0.0000284    -0.0000340     0.0000000    -0.0000110
    -0.0000506    -0.0000113     0.0000000    -0.0000110     0.0000000
 l=   3
     0.0000000     0.0000000     0.0000000     0.0000000     0.0000000     0.0000000     0.0000000
     0.0000000     0.0000000     0.0000000     0.0000000     0.0000000     0.0000000     0.0000000
     0.0000000     0.0000000     0.0000000     0.0000000     0.0000000     0.0000000     0.0000000
     0.0000000     0.0000000     0.0000000     0.0000000     0.0000000     0.0000000     0.0000000
     0.0000000     0.0000000     0.0000000     0.0000000     0.0000000     0.0000000     0.0000000
     0.0000000     0.0000000     0.0000000     0.0000000     0.0000000     0.0000000     0.0000000
     0.0000000     0.0000000     0.0000000     0.0000000     0.0000000     0.0000000     0.0000000

 Ion:   62  E_soc:     -0.1789701
 l=   1
     0.0000000    -0.0298041    -0.0297264
    -0.0298041     0.0000000    -0.0297300
    -0.0297264    -0.0297300     0.0000000
 l=   2
     0.0000000    -0.0000280     0.0000000    -0.0000284    -0.0000455
    -0.0000280     0.0000000    -0.0000373    -0.0000271    -0.0000134
     0.0000000    -0.0000373     0.0000000    -0.0000336     0.0000000
    -0.0000284    -0.0000271    -0.0000336     0.0000000    -0.0000113
    -0.0000455    -0.0000134     0.0000000    -0.0000113     0.0000000
 l=   3
     0.0000000     0.0000000     0.0000000     0.0000000     0.0000000     0.0000000     0.0000000
     0.0000000     0.0000000     0.0000000     0.0000000     0.0000000     0.0000000     0.0000000
     0.0000000     0.0000000     0.0000000     0.0000000     0.0000000     0.0000000     0.0000000
     0.0000000     0.0000000     0.0000000     0.0000000     0.0000000     0.0000000     0.0000000
     0.0000000     0.0000000     0.0000000     0.0000000     0.0000000     0.0000000     0.0000000
     0.0000000     0.0000000     0.0000000     0.0000000     0.0000000     0.0000000     0.0000000
     0.0000000     0.0000000     0.0000000     0.0000000     0.0000000     0.0000000     0.0000000

 Ion:   63  E_soc:     -0.1812041
 l=   1
     0.0000000    -0.0301768    -0.0301682
    -0.0301768     0.0000000    -0.0300625
    -0.0301682    -0.0300625     0.0000000
 l=   2
     0.0000000    -0.0000250     0.0000000    -0.0000256    -0.0000396
    -0.0000250     0.0000000    -0.0000300    -0.0000255    -0.0000095
     0.0000000    -0.0000300     0.0000000    -0.0000294     0.0000000
    -0.0000256    -0.0000255    -0.0000294     0.0000000    -0.0000099
    -0.0000396    -0.0000095     0.0000000    -0.0000099     0.0000000
 l=   3
     0.0000000     0.0000000     0.0000000     0.0000000     0.0000000     0.0000000     0.0000000
     0.0000000     0.0000000     0.0000000     0.0000000     0.0000000     0.0000000     0.0000000
     0.0000000     0.0000000     0.0000000     0.0000000     0.0000000     0.0000000     0.0000000
     0.0000000     0.0000000     0.0000000     0.0000000     0.0000000     0.0000000     0.0000000
     0.0000000     0.0000000     0.0000000     0.0000000     0.0000000     0.0000000     0.0000000
     0.0000000     0.0000000     0.0000000     0.0000000     0.0000000     0.0000000     0.0000000
     0.0000000     0.0000000     0.0000000     0.0000000     0.0000000     0.0000000     0.0000000

 Ion:   64  E_soc:     -0.1789863
 l=   1
     0.0000000    -0.0298068    -0.0297323
    -0.0298068     0.0000000    -0.0297300
    -0.0297323    -0.0297300     0.0000000
 l=   2
     0.0000000    -0.0000278     0.0000000    -0.0000285    -0.0000457
    -0.0000278     0.0000000    -0.0000370    -0.0000271    -0.0000133
     0.0000000    -0.0000370     0.0000000    -0.0000332     0.0000000
    -0.0000285    -0.0000271    -0.0000332     0.0000000    -0.0000115
    -0.0000457    -0.0000133     0.0000000    -0.0000115     0.0000000
 l=   3
     0.0000000     0.0000000     0.0000000     0.0000000     0.0000000     0.0000000     0.0000000
     0.0000000     0.0000000     0.0000000     0.0000000     0.0000000     0.0000000     0.0000000
     0.0000000     0.0000000     0.0000000     0.0000000     0.0000000     0.0000000     0.0000000
     0.0000000     0.0000000     0.0000000     0.0000000     0.0000000     0.0000000     0.0000000
     0.0000000     0.0000000     0.0000000     0.0000000     0.0000000     0.0000000     0.0000000
     0.0000000     0.0000000     0.0000000     0.0000000     0.0000000     0.0000000     0.0000000
     0.0000000     0.0000000     0.0000000     0.0000000     0.0000000     0.0000000     0.0000000

 Ion:   65  E_soc:     -0.1812184
 l=   1
     0.0000000    -0.0301604    -0.0301760
    -0.0301604     0.0000000    -0.0300780
    -0.0301760    -0.0300780     0.0000000
 l=   2
     0.0000000    -0.0000251     0.0000000    -0.0000257    -0.0000393
    -0.0000251     0.0000000    -0.0000301    -0.0000256    -0.0000094
     0.0000000    -0.0000301     0.0000000    -0.0000297     0.0000000
    -0.0000257    -0.0000256    -0.0000297     0.0000000    -0.0000098
    -0.0000393    -0.0000094     0.0000000    -0.0000098     0.0000000
 l=   3
     0.0000000     0.0000000     0.0000000     0.0000000     0.0000000     0.0000000     0.0000000
     0.0000000     0.0000000     0.0000000     0.0000000     0.0000000     0.0000000     0.0000000
     0.0000000     0.0000000     0.0000000     0.0000000     0.0000000     0.0000000     0.0000000
     0.0000000     0.0000000     0.0000000     0.0000000     0.0000000     0.0000000     0.0000000
     0.0000000     0.0000000     0.0000000     0.0000000     0.0000000     0.0000000     0.0000000
     0.0000000     0.0000000     0.0000000     0.0000000     0.0000000     0.0000000     0.0000000
     0.0000000     0.0000000     0.0000000     0.0000000     0.0000000     0.0000000     0.0000000



 total charge     

# of ion       s       p       d       tot
------------------------------------------
    1        0.470   0.314   9.532  10.315
    2        0.477   0.325   9.531  10.333
    3        0.477   0.325   9.531  10.333
    4        0.476   0.326   9.529  10.331
    5        0.477   0.325   9.531  10.333
    6        0.476   0.326   9.529  10.331
    7        0.476   0.326   9.529  10.331
    8        0.476   0.322   9.529  10.327
    9        0.477   0.325   9.531  10.333
   10        0.470   0.314   9.532  10.315
   11        0.476   0.326   9.529  10.331
   12        0.477   0.325   9.530  10.333
   13        0.476   0.326   9.529  10.331
   14        0.477   0.325   9.531  10.333
   15        0.476   0.322   9.529  10.327
   16        0.476   0.326   9.529  10.331
   17        0.476   0.326   9.529  10.331
   18        0.477   0.325   9.531  10.333
   19        0.476   0.322   9.529  10.327
   20        0.476   0.326   9.529  10.331
   21        0.477   0.325   9.531  10.333
   22        0.470   0.314   9.532  10.315
   23        0.476   0.326   9.529  10.331
   24        0.477   0.325   9.530  10.333
   25        0.477   0.325   9.531  10.333
   26        0.476   0.326   9.529  10.331
   27        0.476   0.326   9.529  10.331
   28        0.476   0.322   9.529  10.327
   29        0.470   0.314   9.532  10.315
   30        0.477   0.325   9.531  10.333
   31        0.477   0.325   9.531  10.333
   32        0.476   0.326   9.529  10.331
   33        0.691   0.193   9.510  10.394
   34        1.309   2.099   0.022   3.430
   35        1.322   2.069   0.022   3.413
   36        1.309   2.095   0.021   3.425
   37        1.309   2.099   0.022   3.430
   38        1.309   2.099   0.022   3.430
   39        1.322   2.069   0.022   3.413
   40        1.309   2.095   0.021   3.425
   41        1.309   2.099   0.022   3.430
   42        1.309   2.094   0.021   3.424
   43        1.311   2.096   0.022   3.429
   44        1.311   2.096   0.022   3.429
   45        1.309   2.094   0.021   3.424
   46        1.311   2.096   0.022   3.429
   47        1.309   2.094   0.021   3.424
   48        1.309   2.094   0.021   3.424
   49        1.311   2.096   0.022   3.429
   50        1.309   2.099   0.022   3.430
   51        1.309   2.099   0.022   3.430
   52        1.309   2.095   0.021   3.425
   53        1.309   2.095   0.021   3.425
   54        1.322   2.069   0.022   3.413
   55        1.322   2.069   0.022   3.413
   56        1.309   2.099   0.022   3.430
   57        1.309   2.099   0.022   3.430
   58        1.309   2.095   0.021   3.425
   59        1.309   2.099   0.022   3.430
   60        1.309   2.095   0.021   3.425
   61        1.309   2.099   0.022   3.430
   62        1.309   2.099   0.022   3.430
   63        1.322   2.069   0.022   3.413
   64        1.309   2.099   0.022   3.430
   65        1.322   2.069   0.022   3.413
--------------------------------------------------
tot         57.894  77.470 315.164 450.528



 magnetization (x)

# of ion       s       p       d       tot
------------------------------------------
    1       -0.001  -0.001   0.001  -0.001
    2       -0.001  -0.001   0.000  -0.001
    3       -0.001  -0.001   0.001  -0.001
    4       -0.001  -0.001   0.000  -0.001
    5       -0.001  -0.001   0.000  -0.001
    6       -0.001  -0.001   0.000  -0.001
    7       -0.001  -0.001   0.000  -0.001
    8       -0.001  -0.001   0.000  -0.001
    9       -0.001  -0.001   0.001  -0.001
   10       -0.001  -0.001   0.001  -0.001
   11       -0.001  -0.001   0.000  -0.001
   12       -0.001  -0.001   0.000  -0.001
   13       -0.001  -0.001   0.000  -0.001
   14       -0.001  -0.001   0.000  -0.001
   15       -0.001  -0.001   0.000  -0.001
   16       -0.001  -0.001   0.000  -0.001
   17       -0.001  -0.001   0.000  -0.001
   18       -0.001  -0.001   0.001  -0.001
   19       -0.001  -0.001   0.000  -0.001
   20       -0.001  -0.001   0.000  -0.001
   21       -0.001  -0.001   0.001  -0.001
   22       -0.001  -0.001   0.001  -0.001
   23       -0.001  -0.001   0.000  -0.001
   24       -0.001  -0.001   0.000  -0.001
   25       -0.001  -0.001   0.001  -0.001
   26       -0.001  -0.001   0.000  -0.001
   27       -0.001  -0.001   0.000  -0.001
   28       -0.001  -0.001   0.000  -0.001
   29       -0.001  -0.001   0.001  -0.001
   30       -0.001  -0.001   0.001  -0.001
   31       -0.001  -0.001   0.000  -0.001
   32       -0.001  -0.001   0.000  -0.001
   33        0.010  -0.000   0.000   0.010
   34        0.001   0.004  -0.000   0.004
   35        0.001   0.005  -0.000   0.006
   36        0.001   0.003  -0.000   0.004
   37        0.001   0.004  -0.000   0.004
   38        0.001   0.004  -0.000   0.004
   39        0.001   0.005  -0.000   0.006
   40        0.001   0.003  -0.000   0.004
   41        0.001   0.004  -0.000   0.004
   42        0.001   0.003  -0.000   0.004
   43        0.001   0.003  -0.000   0.004
   44        0.001   0.003  -0.000   0.004
   45        0.001   0.003  -0.000   0.004
   46        0.001   0.003  -0.000   0.004
   47        0.001   0.003  -0.000   0.004
   48        0.001   0.003  -0.000   0.004
   49        0.001   0.003  -0.000   0.004
   50        0.001   0.004  -0.000   0.004
   51        0.001   0.004  -0.000   0.004
   52        0.001   0.003  -0.000   0.004
   53        0.001   0.003  -0.000   0.004
   54        0.001   0.005  -0.000   0.006
   55        0.001   0.005  -0.000   0.006
   56        0.001   0.004  -0.000   0.004
   57        0.001   0.004  -0.000   0.004
   58        0.001   0.003  -0.000   0.004
   59        0.001   0.004  -0.000   0.004
   60        0.001   0.003  -0.000   0.004
   61        0.001   0.004  -0.000   0.004
   62        0.001   0.004  -0.000   0.004
   63        0.001   0.005  -0.000   0.006
   64        0.001   0.004  -0.000   0.004
   65        0.001   0.005  -0.000   0.006
--------------------------------------------------
tot          0.005   0.098   0.014   0.118



 magnetization (y)

# of ion       s       p       d       tot
------------------------------------------
    1       -0.001  -0.001   0.001  -0.001
    2       -0.001  -0.001   0.000  -0.001
    3       -0.001  -0.001   0.000  -0.001
    4       -0.001  -0.001   0.000  -0.001
    5       -0.001  -0.001   0.000  -0.001
    6       -0.001  -0.001   0.000  -0.001
    7       -0.001  -0.001   0.000  -0.001
    8       -0.001  -0.001   0.000  -0.001
    9       -0.001  -0.001   0.001  -0.001
   10       -0.001  -0.001   0.001  -0.001
   11       -0.001  -0.001   0.000  -0.001
   12       -0.001  -0.001   0.000  -0.001
   13       -0.001  -0.001   0.000  -0.001
   14       -0.001  -0.001   0.000  -0.001
   15       -0.001  -0.001   0.000  -0.001
   16       -0.001  -0.001   0.000  -0.001
   17       -0.001  -0.001   0.000  -0.001
   18       -0.001  -0.001   0.000  -0.001
   19       -0.001  -0.001   0.000  -0.001
   20       -0.001  -0.001   0.000  -0.001
   21       -0.001  -0.001   0.000  -0.001
   22       -0.001  -0.001   0.001  -0.001
   23       -0.001  -0.001   0.000  -0.001
   24       -0.001  -0.001   0.000  -0.001
   25       -0.001  -0.001   0.000  -0.001
   26       -0.001  -0.001   0.000  -0.001
   27       -0.001  -0.001   0.000  -0.001
   28       -0.001  -0.001   0.000  -0.001
   29       -0.001  -0.001   0.001  -0.001
   30       -0.001  -0.001   0.000  -0.001
   31       -0.001  -0.001   0.000  -0.001
   32       -0.001  -0.001   0.000  -0.001
   33        0.010  -0.000  -0.000   0.010
   34        0.001   0.004  -0.000   0.004
   35        0.001   0.005  -0.000   0.006
   36        0.001   0.003  -0.000   0.004
   37        0.001   0.004  -0.000   0.004
   38        0.001   0.004  -0.000   0.004
   39        0.001   0.005  -0.000   0.006
   40        0.001   0.003  -0.000   0.004
   41        0.001   0.004  -0.000   0.004
   42        0.001   0.003  -0.000   0.004
   43        0.001   0.003  -0.000   0.004
   44        0.001   0.003  -0.000   0.004
   45        0.001   0.003  -0.000   0.004
   46        0.001   0.003  -0.000   0.004
   47        0.001   0.003  -0.000   0.004
   48        0.001   0.003  -0.000   0.004
   49        0.001   0.003  -0.000   0.004
   50        0.001   0.004  -0.000   0.004
   51        0.001   0.004  -0.000   0.004
   52        0.001   0.003  -0.000   0.004
   53        0.001   0.003  -0.000   0.004
   54        0.001   0.005  -0.000   0.006
   55        0.001   0.005  -0.000   0.006
   56        0.001   0.004  -0.000   0.004
   57        0.001   0.004  -0.000   0.004
   58        0.001   0.003  -0.000   0.004
   59        0.001   0.004  -0.000   0.004
   60        0.001   0.003  -0.000   0.004
   61        0.001   0.004  -0.000   0.004
   62        0.001   0.004  -0.000   0.004
   63        0.001   0.005  -0.000   0.006
   64        0.001   0.004  -0.000   0.004
   65        0.001   0.005  -0.000   0.006
--------------------------------------------------
tot          0.005   0.098   0.013   0.116



 magnetization (z)

# of ion       s       p       d       tot
------------------------------------------
    1       -0.001  -0.001   0.001  -0.001
    2       -0.001  -0.001   0.000  -0.001
    3       -0.001  -0.001   0.000  -0.001
    4       -0.001  -0.001   0.000  -0.001
    5       -0.001  -0.001   0.000  -0.001
    6       -0.001  -0.001   0.000  -0.001
    7       -0.001  -0.001   0.000  -0.001
    8       -0.001  -0.001   0.000  -0.001
    9       -0.001  -0.001   0.001  -0.001
   10       -0.001  -0.001   0.001  -0.001
   11       -0.001  -0.001   0.000  -0.001
   12       -0.001  -0.001   0.000  -0.001
   13       -0.001  -0.001   0.000  -0.001
   14       -0.001  -0.001   0.000  -0.001
   15       -0.001  -0.001   0.000  -0.001
   16       -0.001  -0.001   0.000  -0.001
   17       -0.001  -0.001   0.000  -0.001
   18       -0.001  -0.001   0.000  -0.001
   19       -0.001  -0.001   0.000  -0.001
   20       -0.001  -0.001   0.000  -0.001
   21       -0.001  -0.001   0.000  -0.001
   22       -0.001  -0.001   0.001  -0.001
   23       -0.001  -0.001   0.000  -0.001
   24       -0.001  -0.001   0.000  -0.001
   25       -0.001  -0.001   0.000  -0.001
   26       -0.001  -0.001   0.000  -0.001
   27       -0.001  -0.001   0.000  -0.001
   28       -0.001  -0.001   0.000  -0.001
   29       -0.001  -0.001   0.001  -0.001
   30       -0.001  -0.001   0.000  -0.001
   31       -0.001  -0.001   0.001  -0.001
   32       -0.001  -0.001   0.000  -0.001
   33        0.010  -0.000   0.000   0.010
   34        0.001   0.004  -0.000   0.004
   35        0.001   0.005  -0.000   0.006
   36        0.001   0.003  -0.000   0.004
   37        0.001   0.004  -0.000   0.004
   38        0.001   0.004  -0.000   0.004
   39        0.001   0.005  -0.000   0.006
   40        0.001   0.003  -0.000   0.004
   41        0.001   0.004  -0.000   0.004
   42        0.001   0.003  -0.000   0.004
   43        0.001   0.003  -0.000   0.004
   44        0.001   0.003  -0.000   0.004
   45        0.001   0.003  -0.000   0.004
   46        0.001   0.004  -0.000   0.004
   47        0.001   0.003  -0.000   0.004
   48        0.001   0.003  -0.000   0.004
   49        0.001   0.003  -0.000   0.004
   50        0.001   0.004  -0.000   0.004
   51        0.001   0.004  -0.000   0.004
   52        0.001   0.003  -0.000   0.004
   53        0.001   0.003  -0.000   0.004
   54        0.001   0.005  -0.000   0.006
   55        0.001   0.005  -0.000   0.006
   56        0.001   0.004  -0.000   0.004
   57        0.001   0.004  -0.000   0.004
   58        0.001   0.003  -0.000   0.004
   59        0.001   0.004  -0.000   0.004
   60        0.001   0.003  -0.000   0.004
   61        0.001   0.004  -0.000   0.004
   62        0.001   0.004  -0.000   0.004
   63        0.001   0.005  -0.000   0.006
   64        0.001   0.004  -0.000   0.004
   65        0.001   0.005  -0.000   0.006
--------------------------------------------------
tot          0.005   0.099   0.014   0.117


 total amount of memory used by VASP MPI-rank0   586007. kBytes
=======================================================================

   base      :      30000. kBytes
   nonl-proj :      10259. kBytes
   fftplans  :      34505. kBytes
   grid      :      33619. kBytes
   one-center:        311. kBytes
   HF        :        129. kBytes
   nonlr-proj:      10576. kBytes
   wavefun   :     466608. kBytes

  
  
 General timing and accounting informations for this job:
 ========================================================
  
                  Total CPU time used (sec):    35063.316
                            User time (sec):    34079.337
                          System time (sec):      983.979
                         Elapsed time (sec):    35105.502
  
                   Maximum memory used (kb):     1109224.
                   Average memory used (kb):           0.
  
                          Minor page faults:       125352
                          Major page faults:            1
                 Voluntary context switches:        61640
