 vasp.5.4.4.18Apr17-6-g9f103f2a35 (build Mar 14 2021 20:37:43) complex           
 executed on    HPECrayEX-GNU-MKL date 2021.03.26  18:45:02
 running on 1024 total cores
 distrk:  each k-point on  512 cores,    2 groups
 distr:  one band on NCORES_PER_BAND=  32 cores,   16 groups


--------------------------------------------------------------------------------------------------------


 INCAR:
 POTCAR:    PAW_PBE Cd 06Sep2000                  
 POTCAR:    PAW_PBE Te 08Apr2002                  

 ----------------------------------------------------------------------------- 
|                                                                             |
|           W    W    AA    RRRRR   N    N  II  N    N   GGGG   !!!           |
|           W    W   A  A   R    R  NN   N  II  NN   N  G    G  !!!           |
|           W    W  A    A  R    R  N N  N  II  N N  N  G       !!!           |
|           W WW W  AAAAAA  RRRRR   N  N N  II  N  N N  G  GGG   !            |
|           WW  WW  A    A  R   R   N   NN  II  N   NN  G    G                |
|           W    W  A    A  R    R  N    N  II  N    N   GGGG   !!!           |
|                                                                             |
|      You have enabled k-point parallelism (KPAR>1).                         |
|      This developmental code was originally  written by Paul Kent at ORNL,  |
|      and carefully double checked in Vienna.                                |
|      GW as well as linear response parallelism added by Martijn Marsman     |
|      and Georg Kresse.                                                      |
|      Carefully verify results versus KPAR=1.                                |
|      Report problems to Paul Kent and Vienna.                               |
|                                                                             |
 ----------------------------------------------------------------------------- 

 POTCAR:    PAW_PBE Cd 06Sep2000                  
   VRHFIN =Cd : s2 d10                                                          
   LEXCH  = PE                                                                  
   EATOM  =  1293.1815 eV,   95.0462 Ry                                         
                                                                                
   TITEL  = PAW_PBE Cd 06Sep2000                                                
   LULTRA =        F    use ultrasoft PP ?                                      
   IUNSCR =        1    unscreen: 0-lin 1-nonlin 2-no                           
   RPACOR =    2.000    partial core radius                                     
   POMASS =  112.411; ZVAL   =   12.000    mass and valenz                      
   RCORE  =    2.300    outmost cutoff radius                                   
   RWIGS  =    2.980; RWIGS  =    1.577    wigner-seitz radius (au A)           
   ENMAX  =  274.336; ENMIN  =  205.752 eV                                      
   RCLOC  =    2.054    cutoff for local pot                                    
   LCOR   =        T    correct aug charges                                     
   LPAW   =        T    paw PP                                                  
   EAUG   =  456.106                                                            
   DEXC   =    0.000                                                            
   RMAX   =    2.358    core radius for proj-oper                               
   RAUG   =    1.300    factor for augmentation sphere                          
   RDEP   =    2.450    radius for radial grids                                 
   RDEPT  =    1.955    core radius for aug-charge                              
                                                                                
   Atomic configuration                                                         
   12 entries                                                                   
     n  l   j            E        occ.                                          
     1  0  0.50    -26519.7817   2.0000                                         
     2  0  0.50     -3936.9612   2.0000                                         
     2  1  1.50     -3532.2230   6.0000                                         
     3  0  0.50      -733.7908   2.0000                                         
     3  1  1.50      -601.0792   6.0000                                         
     3  2  2.50      -393.5307  10.0000                                         
     4  0  0.50      -105.8977   2.0000                                         
     4  1  1.50       -66.9488   6.0000                                         
     4  2  2.50       -11.7331  10.0000                                         
     5  0  0.50        -5.6592   2.0000                                         
     5  1  0.50        -1.3606   0.0000                                         
     4  3  2.50        -1.3606   0.0000                                         
   Description                                                                  
     l       E           TYP  RCUT    TYP  RCUT                                 
     2    -11.7331479     23  2.300                                             
     2    -13.0937305     23  2.300                                             
     0     -5.6591502     23  2.300                                             
     0     -1.5561433     23  2.300                                             
     1     -2.7211652     23  2.300                                             
     1      8.3548275     23  2.300                                             
  local pseudopotential read in
  partial core-charges read in
  partial kinetic energy density read in
  atomic valenz-charges read in
  non local Contribution for L=           2  read in
    real space projection operators read in
  non local Contribution for L=           2  read in
    real space projection operators read in
  non local Contribution for L=           0  read in
    real space projection operators read in
  non local Contribution for L=           0  read in
    real space projection operators read in
  non local Contribution for L=           1  read in
    real space projection operators read in
  non local Contribution for L=           1  read in
    real space projection operators read in
    PAW grid and wavefunctions read in

   number of l-projection  operators is LMAX  =           6
   number of lm-projection operators is LMMAX =          18

 POTCAR:    PAW_PBE Te 08Apr2002                  
   VRHFIN =Te: s2p4                                                             
   LEXCH  = PE                                                                  
   EATOM  =   223.2721 eV,   16.4100 Ry                                         
                                                                                
   TITEL  = PAW_PBE Te 08Apr2002                                                
   LULTRA =        F    use ultrasoft PP ?                                      
   IUNSCR =        1    unscreen: 0-lin 1-nonlin 2-no                           
   RPACOR =    2.200    partial core radius                                     
   POMASS =  127.600; ZVAL   =    6.000    mass and valenz                      
   RCORE  =    2.300    outmost cutoff radius                                   
   RWIGS  =    2.900; RWIGS  =    1.535    wigner-seitz radius (au A)           
   ENMAX  =  174.982; ENMIN  =  131.236 eV                                      
   ICORE  =        3    local potential                                         
   LCOR   =        T    correct aug charges                                     
   LPAW   =        T    paw PP                                                  
   EAUG   =  368.792                                                            
   DEXC   =    0.000                                                            
   RMAX   =    2.345    core radius for proj-oper                               
   RAUG   =    1.300    factor for augmentation sphere                          
   RDEP   =    2.397    radius for radial grids                                 
   RDEPT  =    2.174    core radius for aug-charge                              
                                                                                
   Atomic configuration                                                         
   13 entries                                                                   
     n  l   j            E        occ.                                          
     1  0  0.50    -31621.2075   2.0000                                         
     2  0  0.50     -4848.7941   2.0000                                         
     2  1  1.50     -4352.1960   6.0000                                         
     3  0  0.50      -964.9612   2.0000                                         
     3  1  1.50      -803.6179   6.0000                                         
     3  2  2.50      -559.8710  10.0000                                         
     4  0  0.50      -164.3522   2.0000                                         
     4  1  1.50      -114.3756   6.0000                                         
     4  2  2.50       -41.6483  10.0000                                         
     5  0  0.50       -15.1072   2.0000                                         
     5  1  0.50        -5.9526   4.0000                                         
     5  2  1.50        -5.4423   0.0000                                         
     4  3  2.50        -5.4423   0.0000                                         
   Description                                                                  
     l       E           TYP  RCUT    TYP  RCUT                                 
     0    -15.1072389     23  2.300                                             
     0    -16.4678215     23  2.300                                             
     1     -5.9526306     23  2.300                                             
     1     -2.4873968     23  2.300                                             
     2     -5.4423304     23  2.300                                             
     3     -1.3605826     23  2.300                                             
  local pseudopotential read in
  partial core-charges read in
  partial kinetic energy density read in
  atomic valenz-charges read in
  non local Contribution for L=           0  read in
    real space projection operators read in
  non local Contribution for L=           0  read in
    real space projection operators read in
  non local Contribution for L=           1  read in
    real space projection operators read in
  non local Contribution for L=           1  read in
    real space projection operators read in
  non local Contribution for L=           2  read in
    real space projection operators read in
    PAW grid and wavefunctions read in

   number of l-projection  operators is LMAX  =           5
   number of lm-projection operators is LMMAX =          13


 ----------------------------------------------------------------------------- 
|                                                                             |
|  ADVICE TO THIS USER RUNNING 'VASP/VAMP'   (HEAR YOUR MASTER'S VOICE ...):  |
|                                                                             |
|      You have a (more or less) 'large supercell' and for larger cells       |
|      it might be more efficient to use real space projection opertators     |
|      So try LREAL= Auto  in the INCAR   file.                               |
|      Mind:          For very  accurate calculation you might also keep the  |
|      reciprocal projection scheme          (i.e. LREAL=.FALSE.)             |
|                                                                             |
 ----------------------------------------------------------------------------- 

  PAW_PBE Cd 06Sep2000                  :
 energy of atom  1       EATOM=-1293.1815
 kinetic energy error for atom=    0.0084 (will be added to EATOM!!)
  PAW_PBE Te 08Apr2002                  :
 energy of atom  2       EATOM= -223.2721
 kinetic energy error for atom=    0.0008 (will be added to EATOM!!)


 POSCAR: Cd33 Te32                               
  positions in direct lattice
  No initial velocities read in
 exchange correlation table for  LEXCH =        8
   RHO(1)=    0.500       N(1)  =     2000
   RHO(2)=  100.500       N(2)  =     4000



--------------------------------------------------------------------------------------------------------


 ion  position               nearest neighbor table
   1  0.004  0.996  0.004-  44 2.79  35 2.93  54 2.93  65 2.93  33 2.94
   2  0.001  0.999  0.497-  55 2.82  34 2.82  64 2.82  45 2.84
   3  0.001  0.503  0.001-  63 2.82  56 2.82  37 2.82  42 2.84
   4  1.000  0.501  0.499-  57 2.82  62 2.82  36 2.82  43 2.84
   5  0.497  0.999  0.001-  39 2.82  50 2.82  61 2.82  48 2.84
   6  0.499  0.000  0.499-  38 2.82  51 2.82  60 2.82  49 2.84
   7  0.499  0.501  1.000-  41 2.82  59 2.82  52 2.82  46 2.84
   8  0.501  0.499  0.501-  47 2.82  40 2.83  53 2.83  58 2.83
   9  0.001  0.251  0.253-  54 2.82  34 2.82  62 2.82  42 2.84
  10  0.004  0.254  0.746-  43 2.79  35 2.93  55 2.93  63 2.93  33 2.94
  11  1.000  0.749  0.251-  56 2.82  64 2.82  36 2.82  44 2.84
  12  0.001  0.747  0.749-  65 2.82  57 2.82  37 2.82  45 2.84
  13  0.499  0.250  0.251-  38 2.82  50 2.82  58 2.82  46 2.84
  14  0.497  0.251  0.749-  39 2.82  51 2.82  59 2.82  47 2.84
  15  0.501  0.751  0.249-  48 2.82  40 2.83  52 2.83  60 2.83
  16  0.499  0.749  0.750-  41 2.82  61 2.82  53 2.82  49 2.84
  17  0.251  0.000  0.251-  34 2.82  50 2.82  60 2.82  44 2.84
  18  0.253  0.999  0.749-  35 2.82  51 2.82  61 2.82  45 2.84
  19  0.249  0.499  0.249-  42 2.82  36 2.83  52 2.83  58 2.83
  20  0.251  0.501  0.750-  37 2.82  59 2.82  53 2.82  43 2.84
  21  0.749  0.999  0.253-  54 2.82  38 2.82  64 2.82  48 2.84
  22  0.746  0.996  0.746-  49 2.79  39 2.93  55 2.93  65 2.93  33 2.94
  23  0.750  0.501  0.251-  56 2.82  62 2.82  40 2.82  46 2.84
  24  0.749  0.503  0.749-  63 2.82  57 2.82  41 2.82  47 2.84
  25  0.253  0.251  0.001-  35 2.82  50 2.82  59 2.82  42 2.84
  26  0.251  0.250  0.499-  34 2.82  51 2.82  58 2.82  43 2.84
  27  0.251  0.749  1.000-  37 2.82  61 2.82  52 2.82  44 2.84
  28  0.249  0.751  0.501-  45 2.82  36 2.83  53 2.83  60 2.83
  29  0.746  0.254  0.004-  46 2.79  39 2.93  54 2.93  63 2.93  33 2.94
  30  0.749  0.251  0.497-  55 2.82  38 2.82  62 2.82  47 2.84
  31  0.749  0.747  0.001-  65 2.82  56 2.82  41 2.82  48 2.84
  32  0.750  0.749  0.499-  57 2.82  64 2.82  40 2.82  49 2.84
  33  0.875  0.125  0.875-   1 2.94  10 2.94  22 2.94  29 2.94  35 3.37  39 3.37  54 3.37  55 3.37
                            63 3.37  65 3.37
  34  0.127  0.125  0.375-  17 2.82  26 2.82   2 2.82   9 2.82
  35  0.133  0.125  0.875-  18 2.82  25 2.82  10 2.93   1 2.93  33 3.37
  36  0.126  0.625  0.375-   4 2.82  11 2.82  19 2.83  28 2.83
  37  0.127  0.625  0.875-  20 2.82  27 2.82   3 2.82  12 2.82
  38  0.623  0.125  0.375-  13 2.82   6 2.82  21 2.82  30 2.82
  39  0.617  0.125  0.875-  14 2.82   5 2.82  22 2.93  29 2.93  33 3.37
  40  0.624  0.625  0.375-  23 2.82  32 2.82   8 2.83  15 2.83
  41  0.623  0.625  0.875-   7 2.82  16 2.82  31 2.82  24 2.82
  42  0.125  0.375  0.125-  19 2.82   9 2.84  25 2.84   3 2.84
  43  0.127  0.377  0.623-  10 2.79   4 2.84  26 2.84  20 2.84
  44  0.127  0.873  0.127-   1 2.79  11 2.84  17 2.84  27 2.84
  45  0.125  0.875  0.625-  28 2.82  18 2.84   2 2.84  12 2.84
  46  0.623  0.377  0.127-  29 2.79  13 2.84  23 2.84   7 2.84
  47  0.625  0.375  0.625-   8 2.82  14 2.84  24 2.84  30 2.84
  48  0.625  0.875  0.125-  15 2.82  21 2.84   5 2.84  31 2.84
  49  0.623  0.873  0.623-  22 2.79  32 2.84   6 2.84  16 2.84
  50  0.375  0.125  0.127-  17 2.82  13 2.82   5 2.82  25 2.82
  51  0.375  0.125  0.623-   6 2.82  26 2.82  18 2.82  14 2.82
  52  0.375  0.625  0.126-   7 2.82  27 2.82  19 2.83  15 2.83
  53  0.375  0.625  0.624-  16 2.82  20 2.82   8 2.83  28 2.83
  54  0.875  0.125  0.133-   9 2.82  21 2.82   1 2.93  29 2.93  33 3.37
  55  0.875  0.125  0.617-  30 2.82   2 2.82  22 2.93  10 2.93  33 3.37
  56  0.875  0.625  0.127-  11 2.82  23 2.82   3 2.82  31 2.82
  57  0.875  0.625  0.623-   4 2.82  32 2.82  12 2.82  24 2.82
  58  0.375  0.376  0.375-  26 2.82  13 2.82  19 2.83   8 2.83
  59  0.375  0.377  0.875-   7 2.82  20 2.82  14 2.82  25 2.82
  60  0.375  0.874  0.375-   6 2.82  17 2.82  15 2.83  28 2.83
  61  0.375  0.873  0.875-  16 2.82  27 2.82   5 2.82  18 2.82
  62  0.875  0.377  0.375-   4 2.82  23 2.82   9 2.82  30 2.82
  63  0.875  0.383  0.875-  24 2.82   3 2.82  10 2.93  29 2.93  33 3.37
  64  0.875  0.873  0.375-  11 2.82  32 2.82   2 2.82  21 2.82
  65  0.875  0.867  0.875-  12 2.82  31 2.82   1 2.93  22 2.93  33 3.37


IMPORTANT INFORMATION: All symmetrisations will be switched off!
NOSYMM: (Re-)initialisation of all symmetry stuff for point group C_1.



 KPOINTS: Automatically generated mesh            
  k-points in reciprocal lattice
Space group operators:
 irot       det(A)        alpha          n_x          n_y          n_z        tau_x        tau_y        tau_z
    1     1.000000     0.000000     1.000000     0.000000     0.000000     0.000000     0.000000     0.000000

 ----------------------------------------------------------------------------- 
|                                                                             |
|           W    W    AA    RRRRR   N    N  II  N    N   GGGG   !!!           |
|           W    W   A  A   R    R  NN   N  II  NN   N  G    G  !!!           |
|           W    W  A    A  R    R  N N  N  II  N N  N  G       !!!           |
|           W WW W  AAAAAA  RRRRR   N  N N  II  N  N N  G  GGG   !            |
|           WW  WW  A    A  R   R   N   NN  II  N   NN  G    G                |
|           W    W  A    A  R    R  N    N  II  N    N   GGGG   !!!           |
|                                                                             |
|      Your generating k-point grid is not commensurate to the symmetry       |
|      of the lattice.  This can cause   slow convergence with respect        |
|      to k-points for HF type calculations                                   |
|      suggested SOLUTIONS:                                                   |
|       ) if not already the case, use automatic k-point generation           |
|       ) shift your grid to Gamma (G) (e.g. required for hex or fcc lattice) |
|                                                                             |
 ----------------------------------------------------------------------------- 

 
 Subroutine IBZKPT_HF returns following result:
 ==============================================
 
 Found      8 k-points in 1st BZ
 the following      8 k-points will be used (e.g. in the exchange kernel)
 Following reciprocal coordinates:   # in IRBZ
  0.000000  0.000000  0.000000    0.12500000   1 t-inv F
  0.500000  0.000000  0.000000    0.12500000   2 t-inv F
  0.000000  0.500000  0.000000    0.12500000   3 t-inv F
  0.500000  0.500000  0.000000    0.12500000   4 t-inv F
  0.000000  0.000000  0.500000    0.12500000   5 t-inv F
  0.500000  0.000000  0.500000    0.12500000   6 t-inv F
  0.000000  0.500000  0.500000    0.12500000   7 t-inv F
  0.500000  0.500000  0.500000    0.12500000   8 t-inv F


--------------------------------------------------------------------------------------------------------




 Dimension of arrays:
   k-points           NKPTS =      8   k-points in BZ     NKDIM =      8   number of bands    NBANDS=    784
   number of dos      NEDOS =   2000   number of ions     NIONS =     65
   non local maximal  LDIM  =      6   non local SUM 2l+1 LMDIM =     18
   total plane-waves  NPLWV = 884736
   max r-space proj   IRMAX =      1   max aug-charges    IRDMAX= 183854
   dimension x,y,z NGX =    96 NGY =   96 NGZ =   96
   dimension x,y,z NGXF=   192 NGYF=  192 NGZF=  192
   support grid    NGXF=   384 NGYF=  384 NGZF=  384
   ions per type =              33  32
   NGX,Y,Z   is equivalent  to a cutoff of  12.20, 12.20, 12.20 a.u.
   NGXF,Y,Z  is equivalent  to a cutoff of  24.39, 24.39, 24.39 a.u.

 SYSTEM =  unknown system                          
 POSCAR =  Cd33 Te32                               

 Startparameter for this run:
   NWRITE =      2    write-flag & timer
   PREC   = accura    normal or accurate (medium, high low for compatibility)
   ISTART =      0    job   : 0-new  1-cont  2-samecut
   ICHARG =      1    charge: 1-file 2-atom 10-const
   ISPIN  =      1    spin polarized calculation?
   LNONCOLLINEAR =      T non collinear calculations
   LSORBIT =      T    spin-orbit coupling
   INIWAV =      1    electr: 0-lowe 1-rand  2-diag
   LASPH  =      T    aspherical Exc in radial PAW
   METAGGA=      F    non-selfconsistent MetaGGA calc.

 Electronic Relaxation 1
   ENCUT  =  450.0 eV  33.07 Ry    5.75 a.u.  22.64 22.64 22.64*2*pi/ulx,y,z
   ENINI  =  450.0     initial cutoff
   ENAUG  =  456.1 eV  augmentation charge cutoff
   NELM   =      6;   NELMIN=  2; NELMDL= -5     # of ELM steps 
   EDIFF  = 0.1E-05   stopping-criterion for ELM
   LREAL  =      F    real-space projection
   NLSPLINE    = F    spline interpolate recip. space projectors
   LCOMPAT=      F    compatible to vasp.4.4
   GGA_COMPAT  = T    GGA compatible to vasp.4.4-vasp.4.6
   LMAXPAW     = -100 max onsite density
   LMAXMIX     =    2 max onsite mixed and CHGCAR
   VOSKOWN=      0    Vosko Wilk Nusair interpolation
   ROPT   =    0.00000   0.00000
 Ionic relaxation
   EDIFFG = -.1E-01   stopping-criterion for IOM
   NSW    =      0    number of steps for IOM
   NBLOCK =      1;   KBLOCK =      1    inner block; outer block 
   IBRION =     -1    ionic relax: 0-MD 1-quasi-New 2-CG
   NFREE  =      0    steps in history (QN), initial steepest desc. (CG)
   ISIF   =      2    stress and relaxation
   IWAVPR =     10    prediction:  0-non 1-charg 2-wave 3-comb
   ISYM   =      0    0-nonsym 1-usesym 2-fastsym
   LCORR  =      T    Harris-Foulkes like correction to forces

   POTIM  = 0.5000    time-step for ionic-motion
   TEIN   =    0.0    initial temperature
   TEBEG  =    0.0;   TEEND  =   0.0 temperature during run
   SMASS  =  -3.00    Nose mass-parameter (am)
   estimated Nose-frequenzy (Omega)   =  0.10E-29 period in steps =****** mass=  -0.391E-26a.u.
   SCALEE = 1.0000    scale energy and forces
   NPACO  =    256;   APACO  = 16.0  distance and # of slots for P.C.
   PSTRESS=    0.0 pullay stress

  Mass of Ions in am
   POMASS = 112.41127.60
  Ionic Valenz
   ZVAL   =  12.00  6.00
  Atomic Wigner-Seitz radii
   RWIGS  =  -1.00 -1.00
  virtual crystal weights 
   VCA    =   1.00  1.00
   NELECT =     588.0000    total number of electrons
   NUPDOWN=      -1.0000    fix difference up-down

 DOS related values:
   EMIN   =  10.00;   EMAX   =-10.00  energy-range for DOS
   EFERMI =   0.00
   ISMEAR =     0;   SIGMA  =   0.05  broadening in eV -4-tet -1-fermi 0-gaus

 Electronic relaxation 2 (details)
   IALGO  =     58    algorithm
   LDIAG  =      T    sub-space diagonalisation (order eigenvalues)
   LSUBROT=      F    optimize rotation matrix (better conditioning)
   TURBO    =      0    0=normal 1=particle mesh
   IRESTART =      0    0=no restart 2=restart with 2 vectors
   NREBOOT  =      0    no. of reboots
   NMIN     =      0    reboot dimension
   EREF     =   0.00    reference energy to select bands
   IMIX   =      4    mixing-type and parameters
     AMIX     =   0.40;   BMIX     =  1.00
     AMIX_MAG =   1.60;   BMIX_MAG =  1.00
     AMIN     =   0.10
     WC   =   100.;   INIMIX=   1;  MIXPRE=   1;  MAXMIX= -45

 Intra band minimization:
   WEIMIN = 0.0000     energy-eigenvalue tresh-hold
   EBREAK =  0.32E-09  absolut break condition
   DEPER  =   0.30     relativ break condition  

   TIME   =   0.40     timestep for ELM

  volume/ion in A,a.u.               =      34.48       232.69
  Fermi-wavevector in a.u.,A,eV,Ry     =   1.048017  1.980464 14.943809  1.098339
  Thomas-Fermi vector in A             =   2.182921

 Write flags
   LWAVE        =      T    write WAVECAR
   LDOWNSAMPLE  =      F    k-point downsampling of WAVECAR
   LCHARG       =      T    write CHGCAR
   LVTOT        =      F    write LOCPOT, total local potential
   LVHAR        =      T    write LOCPOT, Hartree potential only
   LELF         =      F    write electronic localiz. function (ELF)
   LORBIT       =     11    0 simple, 1 ext, 2 COOP (PROOUT), +10 PAW based schemes


 Dipole corrections
   LMONO  =      F    monopole corrections only (constant potential shift)
   LDIPOL =      F    correct potential (dipole corrections)
   IDIPOL =      0    1-x, 2-y, 3-z, 4-all directions 
   EPSILON=  1.0000000 bulk dielectric constant

 Exchange correlation treatment:
   GGA     =    --    GGA type
   LEXCH   =     8    internal setting for exchange type
   VOSKOWN=      0    Vosko Wilk Nusair interpolation
   EXXOEP  =     0    0=HF, 1=EXX-LHF (local Hartree Fock) 2=EXX OEP
   LHFCALC =     T    Hartree Fock is set to
   LSYMGRAD=     F    symmetrize gradient (conserves proper symmetry)
   PRECFOCK=fast      Normal, Fast or Accurate (Low or Medium for compatibility)
   LRHFCALC=     F    long range Hartree Fock
   LRSCOR  =     F    long range correlation only (use DFT for short range part)
   LTHOMAS =     F    Thomas Fermi screening in HF
   LMODELHF=     F    short range full HF, long range fraction AEXX
   ENCUT4O =  -1.0   cutoff for four orbital integrals eV
   LMAXFOCK=     4    L truncation for augmentation on plane wave grid
   LMAXFOCKAE=  -1    L truncation for all-electron charge restoration on plane wave grid
   NMAXFOCKAE=   1    number of basis functions for all-electron charge restoration
   LFOCKAEDFT=     F  apply the AE augmentation even for DFT
   NKREDX  =     1    reduce k-point grid by
   NKREDY  =     1    reduce k-point grid by
   NKREDZ  =     1    reduce k-point grid by
   SHIFTRED=     F    shift reduced grid of Gamma
   HFKIDENT=     F    idential grid for each k-point
   ODDONLY =     F    use only odd q-grid points
   EVENONLY=     F    use only even q-grid points
   HFALPHA =   -1.0000 decay constant for conv. correction
   MCALPHA =    0.0000 extent of test-charge in conv. correction in multipole expansion
   AEXX    =    0.2500 exact exchange contribution
   HFSCREEN=    0.2000 screening length (either q_TF or 0.3 A-1)
   HFSCREENC=   0.2000 screening length for correlation (either q_TF or 0.3 A-1)
   HFRCUT  =    0.0000 spherical cutoff for potential kernel
   ALDAX   =    0.7500 LDA exchange part
   AGGAX   =    0.7500 GGA exchange part
   ALDAC   =    1.0000 LDA correlation
   AGGAC   =    1.0000 GGA correlation
   ENCUTFOCK=  -1.0 apply spherical cutoff to Coloumb kernel
   NBANDSGWLOW=     1    first orbital included in HF term
   NBLOCK_FOCK=    64    blocking factor in FOCK_ACC
 Linear response parameters
   LEPSILON=     F    determine dielectric tensor
   LRPA    =     F    only Hartree local field effects (RPA)
   LNABLA  =     F    use nabla operator in PAW spheres
   LVEL    =     F    velocity operator in full k-point grid
   LINTERFAST=   F  fast interpolation
   KINTER  =     0    interpolate to denser k-point grid
   CSHIFT  =0.1000    complex shift for real part using Kramers Kronig
   OMEGAMAX=  -1.0    maximum frequency
   DEG_THRESHOLD= 0.2000000E-02 threshold for treating states as degnerate
   RTIME   =   -0.100 relaxation time in fs
  (WPLASMAI=    0.000 imaginary part of plasma frequency in eV, 0.658/RTIME)
   DFIELD  = 0.0000000 0.0000000 0.0000000 field for delta impulse in time

 Orbital magnetization related:
   ORBITALMAG=     F  switch on orbital magnetization
   LCHIMAG   =     F  perturbation theory with respect to B field
   DQ        =  0.001000  dq finite difference perturbation B field
   LLRAUG    =     F  two centre corrections for induced B field



--------------------------------------------------------------------------------------------------------


 Static calculation
 charge density and potential will be updated during run
 non collinear spin polarized calculation
 Conjugate gradient for all bands (Freysoldt, et al. PRB 79, 241103 (2009))
 preconditioned conjugated gradient                                        
 perform sub-space diagonalisation
    before iterative eigenvector-optimisation
 modified Broyden-mixing scheme, WC =      100.0
 initial mixing is a Kerker type mixing with AMIX =  0.4000 and BMIX =      1.0000
 Hartree-type preconditioning will be used
 using additional bands          490
 reciprocal scheme for non local part
 use partial core corrections
 no Harris-corrections to forces 
 use gradient corrections 
 use of overlap-Matrix (Vanderbilt PP)
 Gauss-broadening in eV      SIGMA  =   0.05


--------------------------------------------------------------------------------------------------------


  energy-cutoff  :      450.00
  volume of cell :     2241.29
      direct lattice vectors                 reciprocal lattice vectors
    13.086768000  0.000000000  0.000000000     0.076413061  0.000000000  0.000000000
     0.000000000 13.086768000  0.000000000     0.000000000  0.076413061  0.000000000
     0.000000000  0.000000000 13.086768000     0.000000000  0.000000000  0.076413061

  length of vectors
    13.086768000 13.086768000 13.086768000     0.076413061  0.076413061  0.076413061



 k-points in units of 2pi/SCALE and weight: Automatically generated mesh            
   0.00000000  0.00000000  0.00000000       0.125
   0.03820653  0.00000000  0.00000000       0.125
   0.00000000  0.03820653  0.00000000       0.125
   0.03820653  0.03820653  0.00000000       0.125
   0.00000000  0.00000000  0.03820653       0.125
   0.03820653  0.00000000  0.03820653       0.125
   0.00000000  0.03820653  0.03820653       0.125
   0.03820653  0.03820653  0.03820653       0.125

 k-points in reciprocal lattice and weights: Automatically generated mesh            
   0.00000000  0.00000000  0.00000000       0.125
   0.50000000  0.00000000  0.00000000       0.125
   0.00000000  0.50000000  0.00000000       0.125
   0.50000000  0.50000000  0.00000000       0.125
   0.00000000  0.00000000  0.50000000       0.125
   0.50000000  0.00000000  0.50000000       0.125
   0.00000000  0.50000000  0.50000000       0.125
   0.50000000  0.50000000  0.50000000       0.125

 position of ions in fractional coordinates (direct lattice) 
   0.00448500  0.99551500  0.00448500
   0.00124700  0.99875300  0.49695900
   0.00124700  0.50304100  0.00124700
   0.99962500  0.50121800  0.49878200
   0.49695900  0.99875300  0.00124700
   0.49878100  0.00037500  0.49878100
   0.49878100  0.50121900  0.99962500
   0.50052800  0.49947200  0.50052800
   0.00124700  0.25124700  0.25304000
   0.00448600  0.25448500  0.74551500
   0.99962500  0.74878200  0.25121800
   0.00124700  0.74695900  0.74875300
   0.49878200  0.24962500  0.25121900
   0.49696000  0.25124700  0.74875300
   0.50052800  0.75052800  0.24947200
   0.49878100  0.74878100  0.75037500
   0.25121900  0.00037500  0.25121900
   0.25304000  0.99875300  0.74875300
   0.24947200  0.49947200  0.24947200
   0.25121900  0.50121900  0.75037500
   0.74875300  0.99875300  0.25304000
   0.74551400  0.99551500  0.74551500
   0.75037500  0.50121900  0.25121900
   0.74875300  0.50304000  0.74875300
   0.25304000  0.25124700  0.00124700
   0.25121900  0.24962500  0.49878100
   0.25121900  0.74878100  0.99962500
   0.24947200  0.75052800  0.50052800
   0.74551400  0.25448500  0.00448500
   0.74875300  0.25124700  0.49696000
   0.74875300  0.74695900  0.00124700
   0.75037500  0.74878200  0.49878200
   0.87500000  0.12500000  0.87500000
   0.12665600  0.12500000  0.37500000
   0.13277900  0.12500000  0.87500000
   0.12589200  0.62500000  0.37500000
   0.12665600  0.62500000  0.87500000
   0.62334400  0.12500000  0.37500000
   0.61722100  0.12500000  0.87500000
   0.62410800  0.62500000  0.37500000
   0.62334400  0.62500000  0.87500000
   0.12484800  0.37484800  0.12484800
   0.12748800  0.37748800  0.62251200
   0.12748800  0.87251200  0.12748800
   0.12484800  0.87515200  0.62515200
   0.62251200  0.37748800  0.12748800
   0.62515200  0.37484800  0.62515200
   0.62515200  0.87515200  0.12484800
   0.62251200  0.87251200  0.62251200
   0.37500000  0.12500000  0.12665600
   0.37500000  0.12500000  0.62334400
   0.37500000  0.62500000  0.12589200
   0.37500000  0.62500000  0.62410800
   0.87500000  0.12500000  0.13277900
   0.87500000  0.12500000  0.61722100
   0.87500000  0.62500000  0.12665600
   0.87500000  0.62500000  0.62334400
   0.37500000  0.37589200  0.37500000
   0.37500000  0.37665600  0.87500000
   0.37500000  0.87410800  0.37500000
   0.37500000  0.87334400  0.87500000
   0.87500000  0.37665600  0.37500000
   0.87500000  0.38277900  0.87500000
   0.87500000  0.87334400  0.37500000
   0.87500000  0.86722100  0.87500000

 position of ions in cartesian coordinates  (Angst):
   0.05869415 13.02807385  0.05869415
   0.01631920 13.07044880  6.50358714
   0.01631920  6.58318086  0.01631920
  13.08186046  6.55932368  6.52744432
   6.50358714 13.07044880  0.01631920
   6.52743123  0.00490754  6.52743123
   6.52743123  6.55933677 13.08186046
   6.55029381  6.53647419  6.55029381
   0.01631920  3.28801120  3.31147577
   0.05870724  3.33038615  9.75638185
  13.08186046  9.79913632  3.28763168
   0.01631920  9.77527914  9.79875680
   6.52744432  3.26678446  3.28764477
   6.50360023  3.28801120  9.79875680
   6.55029381  9.82198581  3.26478219
   6.52743123  9.79912323  9.81998354
   3.28764477  0.00490754  3.28764477
   3.31147577 13.07044880  9.79875680
   3.26478219  6.53647419  3.26478219
   3.28764477  6.55933677  9.81998354
   9.79875680 13.07044880  3.31147577
   9.75636876 13.02807385  9.75638185
   9.81998354  6.55933677  3.28764477
   9.79875680  6.58316777  9.79875680
   3.31147577  3.28801120  0.01631920
   3.28764477  3.26678446  6.52743123
   3.28764477  9.79912323 13.08186046
   3.26478219  9.82198581  6.55029381
   9.75636876  3.33038615  0.05869415
   9.79875680  3.28801120  6.50360023
   9.79875680  9.77527914  0.01631920
   9.81998354  9.79913632  6.52744432
  11.45092200  1.63584600 11.45092200
   1.65751769  1.63584600  4.90753800
   1.73764797  1.63584600 11.45092200
   1.64751940  8.17923000  4.90753800
   1.65751769  8.17923000 11.45092200
   8.15755831  1.63584600  4.90753800
   8.07742803  1.63584600 11.45092200
   8.16755660  8.17923000  4.90753800
   8.15755831  8.17923000 11.45092200
   1.63385681  4.90554881  1.63385681
   1.66840588  4.94009788  8.14667012
   1.66840588 11.41836212  1.66840588
   1.63385681 11.45291119  8.18121919
   8.14667012  4.94009788  1.66840588
   8.18121919  4.90554881  8.18121919
   8.18121919 11.45291119  1.63385681
   8.14667012 11.41836212  8.14667012
   4.90753800  1.63584600  1.65751769
   4.90753800  1.63584600  8.15755831
   4.90753800  8.17923000  1.64751940
   4.90753800  8.17923000  8.16755660
  11.45092200  1.63584600  1.73764797
  11.45092200  1.63584600  8.07742803
  11.45092200  8.17923000  1.65751769
  11.45092200  8.17923000  8.15755831
   4.90753800  4.91921140  4.90753800
   4.90753800  4.92920969 11.45092200
   4.90753800 11.43924860  4.90753800
   4.90753800 11.42925031 11.45092200
  11.45092200  4.92920969  4.90753800
  11.45092200  5.00933997 11.45092200
  11.45092200 11.42925031  4.90753800
  11.45092200 11.34912003 11.45092200

 Euler angles ALPHA=     0.0000000  BETA=     0.0000000

 transformation matrix from SAXIS to cartesian coordinates
 ---------------------------------------------------------
     1.0000000 m_x    -0.0000000 m_y     0.0000000 m_z
     0.0000000 m_x     1.0000000 m_y     0.0000000 m_z
    -0.0000000 m_x     0.0000000 m_y     1.0000000 m_z

 transformation matrix from cartesian coordinates to SAXIS
 ---------------------------------------------------------
     1.0000000 m_x     0.0000000 m_y    -0.0000000 m_z
    -0.0000000 m_x     1.0000000 m_y     0.0000000 m_z
     0.0000000 m_x     0.0000000 m_y     1.0000000 m_z




--------------------------------------------------------------------------------------------------------


 k-point  1 :   0.0000 0.0000 0.0000  plane waves:   97002
 k-point  2 :   0.5000 0.0000 0.0000  plane waves:   97356
 k-point  3 :   0.0000 0.5000 0.0000  plane waves:   97356
 k-point  4 :   0.5000 0.5000 0.0000  plane waves:   96960
 k-point  5 :   0.0000 0.0000 0.5000  plane waves:   97356
 k-point  6 :   0.5000 0.0000 0.5000  plane waves:   96960
 k-point  7 :   0.0000 0.5000 0.5000  plane waves:   96960
 k-point  8 :   0.5000 0.5000 0.5000  plane waves:   96832

 maximum and minimum number of plane-waves per node :      3116     2976

 maximum number of plane-waves:     97356
 maximum index in each direction: 
   IXMAX=   22   IYMAX=   22   IZMAX=   22
   IXMIN=  -23   IYMIN=  -23   IZMIN=  -23


 parallel 3D FFT for wavefunctions:
    minimum data exchange during FFTs selected (reduces bandwidth)
 parallel 3D FFT for charge:
    minimum data exchange during FFTs selected (reduces bandwidth)


 FFT grid for exact exchange (Hartree Fock) 
  NGX = 48; NGY = 48; NGZ = 48


 Radii for the augmentation spheres in the non-local exchange
 for species   1 augmentation radius   1.444 (default was   1.070)
       energy cutoff for augmentation   1800.0
 for species   2 augmentation radius   1.606 (default was   1.190)
       energy cutoff for augmentation   1800.0

 real space projection operators:
  total allocation   :       9375.20 KBytes
  max/ min on nodes  :        432.62        141.21

 Maximum index for augmentation-charges in exchange           97
  SETUP_FOCK is finished

 total amount of memory used by VASP MPI-rank0   116355. kBytes
=======================================================================

   base      :      30000. kBytes
   nonl-proj :       5136. kBytes
   fftplans  :       6884. kBytes
   grid      :      12386. kBytes
   one-center:        186. kBytes
   HF        :        129. kBytes
   nonlr-proj:       1424. kBytes
   wavefun   :      60210. kBytes

     INWAV:  cpu time    0.0001: real time    0.0005
 Broyden mixing: mesh for mixing (old mesh)
   NGX = 45   NGY = 45   NGZ = 45
  (NGX  =192   NGY  =192   NGZ  =192)
  gives a total of  91125 points

 initial charge density was supplied:
 charge density of overlapping atoms calculated
 number of electron     588.0000000 magnetization      65.0000000     65.0000000     65.0000000
 keeping initial charge density in first step


--------------------------------------------------------------------------------------------------------


 Maximum index for augmentation-charges         3093 (set IRDMAX)


--------------------------------------------------------------------------------------------------------


 First call to EWALD:  gamma=   0.135
 Maximum number of real-space cells 3x 3x 3
 Maximum number of reciprocal cells 3x 3x 3

    FEWALD:  cpu time    0.0174: real time    0.0174


--------------------------------------- Iteration      1(   1)  ---------------------------------------


    POTLOK:  cpu time    0.3816: real time    0.3837
    SETDIJ:  cpu time    1.6754: real time    1.6757
    TRIAL :  cpu time    8.0693: real time    8.5894
    CORREC:  cpu time    0.0021: real time    0.0021
    --------------------------------------------
      LOOP:  cpu time   10.2378: real time   10.7604

 eigenvalue-minimisations  : 12544
 total energy-change (2. order) : 0.4600553E+04  (-0.2545669E+05)
 number of electron     588.0000000 magnetization      65.0000000     65.0000000     65.0000000
 augmentation part      588.0000000 magnetization      65.0000000     65.0000000     65.0000000

 Free energy of the ion-electron system (eV)
  ---------------------------------------------------
  alpha Z        PSCENC =      1642.45118531
  Ewald energy   TEWEN  =    -33940.17512420
  -Hartree energ DENC   =    -17077.89199325
  -exchange      EXHF   =         0.00000000
  -V(xc)+E(xc)   XCENC  =      -617.56595420
  PAW double counting   =     46020.13618676   -43994.38451653
  entropy T*S    EENTRO =        -0.03157993
  eigenvalues    EBANDS =      2818.58967945
  atomic energy  EATOM  =     49749.42546356
  ---------------------------------------------------
  free energy    TOTEN  =      4600.55334698 eV

  energy without entropy =     4600.58492691  energy(sigma->0) =     4600.56913695
  exchange ACFDT corr.  =         0.00000000  see jH, gK, PRB 81, 115126


--------------------------------------------------------------------------------------------------------




--------------------------------------- Iteration      1(   2)  ---------------------------------------


    TRIAL :  cpu time    8.1684: real time    8.3339
    CORREC:  cpu time    0.0022: real time    0.0022
    --------------------------------------------
      LOOP:  cpu time    8.1850: real time    8.3693

 eigenvalue-minimisations  : 13680
 total energy-change (2. order) :-0.3424210E+04  (-0.3262216E+04)
 number of electron     588.0000000 magnetization      65.0000000     65.0000000     65.0000000
 augmentation part      588.0000000 magnetization      65.0000000     65.0000000     65.0000000

 Free energy of the ion-electron system (eV)
  ---------------------------------------------------
  alpha Z        PSCENC =      1642.45118531
  Ewald energy   TEWEN  =    -33940.17512420
  -Hartree energ DENC   =    -17077.89199325
  -exchange      EXHF   =         0.00000000
  -V(xc)+E(xc)   XCENC  =      -617.56595420
  PAW double counting   =     46020.13618676   -43994.38451653
  entropy T*S    EENTRO =        -0.01229983
  eigenvalues    EBANDS =      -605.63998502
  atomic energy  EATOM  =     49749.42546356
  ---------------------------------------------------
  free energy    TOTEN  =      1176.34296261 eV

  energy without entropy =     1176.35526244  energy(sigma->0) =     1176.34911252
  exchange ACFDT corr.  =         0.00000000  see jH, gK, PRB 81, 115126


--------------------------------------------------------------------------------------------------------




--------------------------------------- Iteration      1(   3)  ---------------------------------------


    TRIAL :  cpu time    8.4218: real time    8.4620
    CORREC:  cpu time    0.0020: real time    0.0020
    --------------------------------------------
      LOOP:  cpu time    8.4392: real time    8.4960

 eigenvalue-minimisations  : 14432
 total energy-change (2. order) :-0.2293884E+03  (-0.2267235E+03)
 number of electron     588.0000000 magnetization      65.0000000     65.0000000     65.0000000
 augmentation part      588.0000000 magnetization      65.0000000     65.0000000     65.0000000

 Free energy of the ion-electron system (eV)
  ---------------------------------------------------
  alpha Z        PSCENC =      1642.45118531
  Ewald energy   TEWEN  =    -33940.17512420
  -Hartree energ DENC   =    -17077.89199325
  -exchange      EXHF   =         0.00000000
  -V(xc)+E(xc)   XCENC  =      -617.56595420
  PAW double counting   =     46020.13618676   -43994.38451653
  entropy T*S    EENTRO =        -0.01253711
  eigenvalues    EBANDS =      -835.02810234
  atomic energy  EATOM  =     49749.42546356
  ---------------------------------------------------
  free energy    TOTEN  =       946.95460802 eV

  energy without entropy =      946.96714512  energy(sigma->0) =      946.96087657
  exchange ACFDT corr.  =         0.00000000  see jH, gK, PRB 81, 115126


--------------------------------------------------------------------------------------------------------




--------------------------------------- Iteration      1(   4)  ---------------------------------------


    TRIAL :  cpu time    8.4802: real time    8.4985
    CORREC:  cpu time    0.0031: real time    0.0031
    --------------------------------------------
      LOOP:  cpu time    8.4962: real time    8.5316

 eigenvalue-minimisations  : 14512
 total energy-change (2. order) :-0.5264115E+01  (-0.5250783E+01)
 number of electron     588.0000000 magnetization      65.0000000     65.0000000     65.0000000
 augmentation part      588.0000000 magnetization      65.0000000     65.0000000     65.0000000

 Free energy of the ion-electron system (eV)
  ---------------------------------------------------
  alpha Z        PSCENC =      1642.45118531
  Ewald energy   TEWEN  =    -33940.17512420
  -Hartree energ DENC   =    -17077.89199325
  -exchange      EXHF   =         0.00000000
  -V(xc)+E(xc)   XCENC  =      -617.56595420
  PAW double counting   =     46020.13618676   -43994.38451653
  entropy T*S    EENTRO =        -0.01278462
  eigenvalues    EBANDS =      -840.29196954
  atomic energy  EATOM  =     49749.42546356
  ---------------------------------------------------
  free energy    TOTEN  =       941.69049330 eV

  energy without entropy =      941.70327792  energy(sigma->0) =      941.69688561
  exchange ACFDT corr.  =         0.00000000  see jH, gK, PRB 81, 115126


--------------------------------------------------------------------------------------------------------




--------------------------------------- Iteration      1(   5)  ---------------------------------------


    TRIAL :  cpu time    8.9966: real time    9.0012
    CORREC:  cpu time    0.0029: real time    0.0029
    CHARGE:  cpu time    0.6966: real time    0.6973
    --------------------------------------------
      LOOP:  cpu time    9.7118: real time    9.7347

 eigenvalue-minimisations  : 15488
 total energy-change (2. order) :-0.1006424E+00  (-0.1004584E+00)
 number of electron     588.0000006 magnetization       0.6809623      0.6809538      0.6809591
 augmentation part      145.5183897 magnetization       0.5828449      0.5827706      0.5828464

 Free energy of the ion-electron system (eV)
  ---------------------------------------------------
  alpha Z        PSCENC =      1642.45118531
  Ewald energy   TEWEN  =    -33940.17512420
  -Hartree energ DENC   =    -17077.89199325
  -exchange      EXHF   =         0.00000000
  -V(xc)+E(xc)   XCENC  =      -617.56595420
  PAW double counting   =     46020.13618676   -43994.38451653
  entropy T*S    EENTRO =        -0.01278142
  eigenvalues    EBANDS =      -840.39261510
  atomic energy  EATOM  =     49749.42546356
  ---------------------------------------------------
  free energy    TOTEN  =       941.58985094 eV

  energy without entropy =      941.60263236  energy(sigma->0) =      941.59624165
  exchange ACFDT corr.  =         0.00000000  see jH, gK, PRB 81, 115126


--------------------------------------------------------------------------------------------------------




--------------------------------------- Iteration      1(   6)  ---------------------------------------


    POTLOK:  cpu time    0.2939: real time    0.2939
    SETDIJ:  cpu time    1.6249: real time    1.6253
    TRIAL :  cpu time  680.0897: real time  680.3795
    CORREC:  cpu time  680.4074: real time  680.6963
    EDDIAG:  cpu time  677.7946: real time  678.0854
    CHARGE:  cpu time    0.8086: real time    0.8089
    --------------------------------------------
      LOOP:  cpu time 2041.1258: real time 2042.0118

 eigenvalue-minimisations  :     0
 total energy-change (2. order) :-0.1141905E+04  ( 0.3263441E+03)
 number of electron     588.0000006 magnetization      -0.7194979     -0.6381370     -0.0804967
 augmentation part      156.6197400 magnetization       0.3916546      0.4839152      0.8649344

 Free energy of the ion-electron system (eV)
  ---------------------------------------------------
  alpha Z        PSCENC =      1642.45118531
  Ewald energy   TEWEN  =    -33940.17512420
  -Hartree energ DENC   =    -15675.20879249
  -exchange      EXHF   =      1138.51103462
  -V(xc)+E(xc)   XCENC  =      -655.55556350
  PAW double counting   =    120191.55683050  -118103.17462168
  entropy T*S    EENTRO =        -0.01425506
  eigenvalues    EBANDS =     -4566.44220509
  atomic energy  EATOM  =     49749.42546356
  ---------------------------------------------------
  free energy    TOTEN  =      -200.31564033 eV

  energy without entropy =     -200.30138526  energy(sigma->0) =     -200.30851280
  exchange ACFDT corr.  =        -0.01688496  see jH, gK, PRB 81, 115126


--------------------------------------------------------------------------------------------------------


  average scaling for gradient   0.9409


 average (electrostatic) potential at core
  the test charge radii are     1.0698  1.1897
  (the norm of the test charge is              1.0000)
       1 -30.3975       2 -32.1848       3 -32.0088       4 -32.9624       5 -31.3876
       6 -31.9647       7 -31.9550       8 -32.1778       9 -32.3432      10 -31.1060
      11 -33.0083      12 -32.3861      13 -31.9639      14 -31.4126      15 -32.1497
      16 -31.9614      17 -32.0016      18 -31.3767      19 -32.0372      20 -31.9881
      21 -31.3836      22 -30.3508      23 -32.0666      24 -31.4710      25 -31.2244
      26 -32.0544      27 -31.9802      28 -32.1684      29 -30.3885      30 -31.4649
      31 -31.3726      32 -32.0190      33 -27.8826      34 -88.9103      35 -86.8755
      36 -88.9820      37 -88.7608      38 -88.5224      39 -86.9439      40 -88.8197
      41 -88.5097      42 -87.8590      43 -88.7788      44 -88.6410      45 -88.3706
      46 -88.5588      47 -88.2510      48 -88.1946      49 -88.4536      50 -88.4555
      51 -88.5419      52 -88.8380      53 -88.8758      54 -86.9096      55 -86.9851
      56 -88.7711      57 -88.8647      58 -88.8609      59 -88.4997      60 -88.8776
      61 -88.5508      62 -88.8773      63 -87.0320      64 -88.7845      65 -86.8743



 E-fermi :   5.1511     XC(G=0):  -7.3038     alpha+bet : -7.2837


 k-point     1 :       0.0000    0.0000    0.0000
  band No.  band energies     occupation 
      1     -10.9731      1.00000
      2     -10.7894      1.00000
      3     -10.7610      1.00000
      4     -10.7461      1.00000
      5     -10.7260      1.00000
      6     -10.5800      1.00000
      7     -10.5418      1.00000
      8     -10.4957      1.00000
      9     -10.4844      1.00000
     10     -10.4774      1.00000
     11     -10.4619      1.00000
     12     -10.4499      1.00000
     13     -10.4269      1.00000
     14     -10.3902      1.00000
     15     -10.3839      1.00000
     16     -10.3478      1.00000
     17     -10.3369      1.00000
     18     -10.3286      1.00000
     19     -10.3051      1.00000
     20     -10.2946      1.00000
     21     -10.2334      1.00000
     22     -10.2078      1.00000
     23     -10.1832      1.00000
     24     -10.1452      1.00000
     25     -10.1366      1.00000
     26     -10.1016      1.00000
     27      -9.9984      1.00000
     28      -9.7932      1.00000
     29      -9.5885      1.00000
     30      -9.4458      1.00000
     31      -9.3568      1.00000
     32      -9.1737      1.00000
     33      -9.1538      1.00000
     34      -9.1018      1.00000
     35      -9.0939      1.00000
     36      -9.0769      1.00000
     37      -9.0198      1.00000
     38      -8.8704      1.00000
     39      -8.7325      1.00000
     40      -8.5740      1.00000
     41      -8.4527      1.00000
     42      -8.4462      1.00000
     43      -8.3976      1.00000
     44      -8.3665      1.00000
     45      -8.3304      1.00000
     46      -8.2790      1.00000
     47      -8.2125      1.00000
     48      -8.1878      1.00000
     49      -8.1206      1.00000
     50      -8.1033      1.00000
     51      -8.0672      1.00000
     52      -8.0110      1.00000
     53      -7.9498      1.00000
     54      -7.9307      1.00000
     55      -7.9008      1.00000
     56      -7.8973      1.00000
     57      -7.8870      1.00000
     58      -7.8785      1.00000
     59      -7.8736      1.00000
     60      -7.8658      1.00000
     61      -7.8542      1.00000
     62      -7.8463      1.00000
     63      -7.8403      1.00000
     64      -7.8336      1.00000
     65      -7.8273      1.00000
     66      -7.8214      1.00000
     67      -7.8140      1.00000
     68      -7.8083      1.00000
     69      -7.8013      1.00000
     70      -7.7904      1.00000
     71      -7.7862      1.00000
     72      -7.7830      1.00000
     73      -7.7729      1.00000
     74      -7.7695      1.00000
     75      -7.7677      1.00000
     76      -7.7612      1.00000
     77      -7.7553      1.00000
     78      -7.7528      1.00000
     79      -7.7481      1.00000
     80      -7.7445      1.00000
     81      -7.7376      1.00000
     82      -7.7322      1.00000
     83      -7.7305      1.00000
     84      -7.7243      1.00000
     85      -7.7212      1.00000
     86      -7.7171      1.00000
     87      -7.7139      1.00000
     88      -7.7100      1.00000
     89      -7.7070      1.00000
     90      -7.7019      1.00000
     91      -7.6959      1.00000
     92      -7.6915      1.00000
     93      -7.6890      1.00000
     94      -7.6860      1.00000
     95      -7.6806      1.00000
     96      -7.6786      1.00000
     97      -7.6775      1.00000
     98      -7.6712      1.00000
     99      -7.6648      1.00000
    100      -7.6609      1.00000
    101      -7.6545      1.00000
    102      -7.6537      1.00000
    103      -7.6386      1.00000
    104      -7.6333      1.00000
    105      -7.6252      1.00000
    106      -7.6213      1.00000
    107      -7.6116      1.00000
    108      -7.6043      1.00000
    109      -7.5967      1.00000
    110      -7.5911      1.00000
    111      -7.5810      1.00000
    112      -7.5791      1.00000
    113      -7.5680      1.00000
    114      -7.5603      1.00000
    115      -7.5577      1.00000
    116      -7.5543      1.00000
    117      -7.5457      1.00000
    118      -7.5370      1.00000
    119      -7.5291      1.00000
    120      -7.5156      1.00000
    121      -7.5072      1.00000
    122      -7.4966      1.00000
    123      -7.4915      1.00000
    124      -7.4828      1.00000
    125      -7.4747      1.00000
    126      -7.4628      1.00000
    127      -7.4545      1.00000
    128      -7.4318      1.00000
    129      -7.3944      1.00000
    130      -7.3751      1.00000
    131      -7.3642      1.00000
    132      -7.3163      1.00000
    133      -7.3024      1.00000
    134      -7.2918      1.00000
    135      -7.2729      1.00000
    136      -7.2626      1.00000
    137      -7.2584      1.00000
    138      -7.2409      1.00000
    139      -7.2325      1.00000
    140      -7.2298      1.00000
    141      -7.2217      1.00000
    142      -7.2176      1.00000
    143      -7.2081      1.00000
    144      -7.1983      1.00000
    145      -7.1938      1.00000
    146      -7.1884      1.00000
    147      -7.1847      1.00000
    148      -7.1836      1.00000
    149      -7.1780      1.00000
    150      -7.1766      1.00000
    151      -7.1683      1.00000
    152      -7.1677      1.00000
    153      -7.1617      1.00000
    154      -7.1609      1.00000
    155      -7.1562      1.00000
    156      -7.1527      1.00000
    157      -7.1506      1.00000
    158      -7.1481      1.00000
    159      -7.1455      1.00000
    160      -7.1422      1.00000
    161      -7.1407      1.00000
    162      -7.1351      1.00000
    163      -7.1311      1.00000
    164      -7.1276      1.00000
    165      -7.1267      1.00000
    166      -7.1238      1.00000
    167      -7.1197      1.00000
    168      -7.1154      1.00000
    169      -7.1108      1.00000
    170      -7.1056      1.00000
    171      -7.1021      1.00000
    172      -7.1009      1.00000
    173      -7.0971      1.00000
    174      -7.0955      1.00000
    175      -7.0914      1.00000
    176      -7.0888      1.00000
    177      -7.0848      1.00000
    178      -7.0811      1.00000
    179      -7.0794      1.00000
    180      -7.0753      1.00000
    181      -7.0713      1.00000
    182      -7.0702      1.00000
    183      -7.0673      1.00000
    184      -7.0653      1.00000
    185      -7.0606      1.00000
    186      -7.0580      1.00000
    187      -7.0545      1.00000
    188      -7.0530      1.00000
    189      -7.0494      1.00000
    190      -7.0457      1.00000
    191      -7.0412      1.00000
    192      -7.0363      1.00000
    193      -7.0327      1.00000
    194      -7.0293      1.00000
    195      -7.0262      1.00000
    196      -7.0231      1.00000
    197      -7.0204      1.00000
    198      -7.0161      1.00000
    199      -7.0143      1.00000
    200      -7.0126      1.00000
    201      -7.0090      1.00000
    202      -7.0073      1.00000
    203      -7.0020      1.00000
    204      -6.9988      1.00000
    205      -6.9951      1.00000
    206      -6.9931      1.00000
    207      -6.9902      1.00000
    208      -6.9872      1.00000
    209      -6.9849      1.00000
    210      -6.9825      1.00000
    211      -6.9790      1.00000
    212      -6.9774      1.00000
    213      -6.9742      1.00000
    214      -6.9719      1.00000
    215      -6.9679      1.00000
    216      -6.9648      1.00000
    217      -6.9613      1.00000
    218      -6.9600      1.00000
    219      -6.9578      1.00000
    220      -6.9553      1.00000
    221      -6.9504      1.00000
    222      -6.9478      1.00000
    223      -6.9424      1.00000
    224      -6.9388      1.00000
    225      -6.9331      1.00000
    226      -6.9295      1.00000
    227      -6.9251      1.00000
    228      -6.9204      1.00000
    229      -6.9163      1.00000
    230      -6.9109      1.00000
    231      -6.9090      1.00000
    232      -6.9019      1.00000
    233      -6.8998      1.00000
    234      -6.8942      1.00000
    235      -6.8919      1.00000
    236      -6.8810      1.00000
    237      -6.8782      1.00000
    238      -6.8732      1.00000
    239      -6.8660      1.00000
    240      -6.8609      1.00000
    241      -6.8566      1.00000
    242      -6.8476      1.00000
    243      -6.8409      1.00000
    244      -6.8288      1.00000
    245      -6.8247      1.00000
    246      -6.8191      1.00000
    247      -6.8122      1.00000
    248      -6.8104      1.00000
    249      -6.8021      1.00000
    250      -6.7896      1.00000
    251      -6.7834      1.00000
    252      -6.7808      1.00000
    253      -6.7708      1.00000
    254      -6.7599      1.00000
    255      -6.7530      1.00000
    256      -6.7465      1.00000
    257      -6.7398      1.00000
    258      -6.7320      1.00000
    259      -6.7243      1.00000
    260      -6.7197      1.00000
    261      -6.7066      1.00000
    262      -6.6982      1.00000
    263      -6.6869      1.00000
    264      -6.6742      1.00000
    265      -6.6542      1.00000
    266      -6.6365      1.00000
    267      -6.6247      1.00000
    268      -6.6098      1.00000
    269      -6.6060      1.00000
    270      -6.5582      1.00000
    271      -6.5432      1.00000
    272      -6.5248      1.00000
    273      -6.5152      1.00000
    274      -6.4880      1.00000
    275      -6.4776      1.00000
    276      -6.4666      1.00000
    277      -6.4607      1.00000
    278      -6.4578      1.00000
    279      -6.4548      1.00000
    280      -6.4506      1.00000
    281      -6.4401      1.00000
    282      -6.4297      1.00000
    283      -6.4254      1.00000
    284      -6.4224      1.00000
    285      -6.4163      1.00000
    286      -6.4028      1.00000
    287      -6.3978      1.00000
    288      -6.3930      1.00000
    289      -6.3899      1.00000
    290      -6.3817      1.00000
    291      -6.3779      1.00000
    292      -6.3689      1.00000
    293      -6.3624      1.00000
    294      -6.3590      1.00000
    295      -6.3492      1.00000
    296      -6.3410      1.00000
    297      -6.3312      1.00000
    298      -6.3254      1.00000
    299      -6.3192      1.00000
    300      -6.3119      1.00000
    301      -6.3098      1.00000
    302      -6.3032      1.00000
    303      -6.2936      1.00000
    304      -6.2852      1.00000
    305      -6.2790      1.00000
    306      -6.2721      1.00000
    307      -6.2629      1.00000
    308      -6.2549      1.00000
    309      -6.2441      1.00000
    310      -6.2132      1.00000
    311      -6.1965      1.00000
    312      -6.1924      1.00000
    313      -6.1729      1.00000
    314      -6.1684      1.00000
    315      -6.1591      1.00000
    316      -6.1517      1.00000
    317      -6.1409      1.00000
    318      -6.1333      1.00000
    319      -6.1223      1.00000
    320      -6.1103      1.00000
    321      -6.1055      1.00000
    322      -6.0970      1.00000
    323      -6.0899      1.00000
    324      -6.0715      1.00000
    325      -6.0622      1.00000
    326      -6.0545      1.00000
    327      -6.0325      1.00000
    328      -6.0043      1.00000
    329      -5.9951      1.00000
    330      -5.9857      1.00000
    331      -5.9618      1.00000
    332      -5.9416      1.00000
    333      -5.9069      1.00000
    334      -5.8815      1.00000
    335      -5.8617      1.00000
    336      -5.7900      1.00000
    337      -5.7240      1.00000
    338      -5.5524      1.00000
    339      -5.4886      1.00000
    340      -5.4782      1.00000
    341      -5.4544      1.00000
    342      -5.4468      1.00000
    343      -5.4330      1.00000
    344      -5.4183      1.00000
    345      -5.3993      1.00000
    346      -5.3878      1.00000
    347      -5.3727      1.00000
    348      -5.3618      1.00000
    349      -5.3397      1.00000
    350      -5.3329      1.00000
    351      -5.3136      1.00000
    352      -5.2887      1.00000
    353      -5.2707      1.00000
    354      -5.2570      1.00000
    355      -5.2424      1.00000
    356      -4.8312      1.00000
    357      -4.7346      1.00000
    358      -4.5631      1.00000
    359      -4.4762      1.00000
    360      -4.3294      1.00000
    361      -4.2018      1.00000
    362      -4.0786      1.00000
    363      -3.8551      1.00000
    364      -3.8065      1.00000
    365      -3.7097      1.00000
    366      -3.6789      1.00000
    367      -3.6609      1.00000
    368      -3.6007      1.00000
    369      -3.4643      1.00000
    370      -3.3361      1.00000
    371      -3.3196      1.00000
    372      -3.3007      1.00000
    373      -3.2850      1.00000
    374      -3.2587      1.00000
    375      -3.2439      1.00000
    376      -3.2381      1.00000
    377      -3.2084      1.00000
    378      -3.1734      1.00000
    379      -3.1364      1.00000
    380      -3.0915      1.00000
    381      -3.0840      1.00000
    382      -3.0638      1.00000
    383      -3.0556      1.00000
    384      -3.0477      1.00000
    385      -3.0439      1.00000
    386      -3.0239      1.00000
    387      -3.0018      1.00000
    388      -2.9794      1.00000
    389      -2.9291      1.00000
    390      -2.9176      1.00000
    391      -2.8828      1.00000
    392      -2.8003      1.00000
    393      -2.7709      1.00000
    394      -2.7356      1.00000
    395      -2.7191      1.00000
    396      -2.6632      1.00000
    397      -2.6498      1.00000
    398      -2.6304      1.00000
    399      -2.5975      1.00000
    400      -2.5371      1.00000
    401      -2.5243      1.00000
    402      -2.4730      1.00000
    403      -2.4454      1.00000
    404      -2.4113      1.00000
    405      -2.3927      1.00000
    406      -2.3817      1.00000
    407      -2.3517      1.00000
    408      -2.3226      1.00000
    409      -2.2648      1.00000
    410      -2.2472      1.00000
    411      -2.1880      1.00000
    412      -2.1512      1.00000
    413      -2.0894      1.00000
    414      -2.0111      1.00000
    415      -1.9895      1.00000
    416      -1.9574      1.00000
    417      -1.8659      1.00000
    418      -1.7160      1.00000
    419      -1.6558      1.00000
    420      -1.6105      1.00000
    421      -1.5695      1.00000
    422      -1.5454      1.00000
    423      -1.4929      1.00000
    424      -1.4654      1.00000
    425      -1.4509      1.00000
    426      -1.4099      1.00000
    427      -1.3949      1.00000
    428      -1.3501      1.00000
    429      -1.3053      1.00000
    430      -1.2962      1.00000
    431      -1.2662      1.00000
    432      -1.2459      1.00000
    433      -1.2320      1.00000
    434      -1.2245      1.00000
    435      -1.2113      1.00000
    436      -1.1843      1.00000
    437      -1.1583      1.00000
    438      -1.1416      1.00000
    439      -1.1307      1.00000
    440      -1.0998      1.00000
    441      -1.0817      1.00000
    442      -1.0577      1.00000
    443      -1.0447      1.00000
    444      -1.0312      1.00000
    445      -1.0262      1.00000
    446      -1.0067      1.00000
    447      -1.0029      1.00000
    448      -0.9938      1.00000
    449      -0.9877      1.00000
    450      -0.9687      1.00000
    451      -0.9624      1.00000
    452      -0.9506      1.00000
    453      -0.9380      1.00000
    454      -0.9170      1.00000
    455      -0.8980      1.00000
    456      -0.8785      1.00000
    457      -0.8617      1.00000
    458      -0.8476      1.00000
    459      -0.8365      1.00000
    460      -0.8096      1.00000
    461      -0.7873      1.00000
    462      -0.7799      1.00000
    463      -0.7683      1.00000
    464      -0.7487      1.00000
    465      -0.7210      1.00000
    466      -0.7124      1.00000
    467      -0.7045      1.00000
    468      -0.6948      1.00000
    469      -0.6817      1.00000
    470      -0.6734      1.00000
    471      -0.6468      1.00000
    472      -0.6244      1.00000
    473      -0.5938      1.00000
    474      -0.5679      1.00000
    475      -0.5491      1.00000
    476      -0.5411      1.00000
    477      -0.4766      1.00000
    478      -0.4488      1.00000
    479      -0.4101      1.00000
    480      -0.3902      1.00000
    481      -0.3551      1.00000
    482      -0.3241      1.00000
    483      -0.2977      1.00000
    484      -0.2649      1.00000
    485      -0.2493      1.00000
    486      -0.2333      1.00000
    487      -0.2108      1.00000
    488      -0.1576      1.00000
    489      -0.1211      1.00000
    490      -0.0292      1.00000
    491       0.0181      1.00000
    492       0.0407      1.00000
    493       0.0536      1.00000
    494       0.0727      1.00000
    495       0.0986      1.00000
    496       0.1100      1.00000
    497       0.1370      1.00000
    498       0.1544      1.00000
    499       0.1781      1.00000
    500       0.1910      1.00000
    501       0.1986      1.00000
    502       0.2171      1.00000
    503       0.2271      1.00000
    504       0.2473      1.00000
    505       0.2742      1.00000
    506       0.2885      1.00000
    507       0.3100      1.00000
    508       0.3304      1.00000
    509       0.3394      1.00000
    510       0.3535      1.00000
    511       0.3636      1.00000
    512       0.3795      1.00000
    513       0.4022      1.00000
    514       0.4180      1.00000
    515       0.4372      1.00000
    516       0.4475      1.00000
    517       0.4576      1.00000
    518       0.4694      1.00000
    519       0.4925      1.00000
    520       0.5119      1.00000
    521       0.5546      1.00000
    522       0.5690      1.00000
    523       0.6120      1.00000
    524       0.6347      1.00000
    525       0.6733      1.00000
    526       0.6999      1.00000
    527       0.7201      1.00000
    528       0.7265      1.00000
    529       0.7551      1.00000
    530       0.7893      1.00000
    531       0.8293      1.00000
    532       0.8522      1.00000
    533       0.8770      1.00000
    534       0.8902      1.00000
    535       0.9103      1.00000
    536       0.9283      1.00000
    537       0.9390      1.00000
    538       0.9505      1.00000
    539       0.9746      1.00000
    540       1.0045      1.00000
    541       1.0842      1.00000
    542       1.1387      1.00000
    543       1.1582      1.00000
    544       1.2166      1.00000
    545       1.2838      1.00000
    546       1.3205      1.00000
    547       1.3890      1.00000
    548       1.4305      1.00000
    549       1.4827      1.00000
    550       1.5561      1.00000
    551       1.5670      1.00000
    552       1.5921      1.00000
    553       1.7792      1.00000
    554       1.9085      1.00000
    555       1.9185      1.00000
    556       1.9428      1.00000
    557       2.8022      1.00000
    558       2.8792      1.00000
    559       2.9519      1.00000
    560       3.3230      1.00000
    561       3.7040      1.00000
    562       4.0537      1.00000
    563       4.1596      1.00000
    564       4.2630      1.00000
    565       4.2993      1.00000
    566       4.3216      1.00000
    567       4.4051      1.00000
    568       4.5109      1.00000
    569       4.6559      1.00000
    570      10.1031      1.00000
    571      10.7705      1.00000
    572      14.0129      1.00000
    573      14.2021      1.00000
    574      14.2280      1.00000
    575      14.2963      1.00000
    576      14.3668      1.00000
    577      14.5079      1.00000
    578      14.7871      1.00000
    579      14.9047      1.00000
    580      14.9079      1.00000
    581      15.0285      1.00000
    582      15.0460      1.00000
    583      15.0738      0.99999
    584       5.1176      0.63937
    585       5.1218      0.22683
    586       5.1220      0.04170
    587       5.1487      0.00000
    588       5.1642      0.00000
    589       5.1980      0.00000
    590       5.2150      0.00000
    591       5.3077      0.00000
    592       5.3216      0.00000
    593       5.3243      0.00000
    594       5.3345      0.00000
    595       5.3375      0.00000
    596       5.3376      0.00000
    597       5.3402      0.00000
    598       5.3650      0.00000
    599       5.3989      0.00000
    600       5.4000      0.00000
    601       5.4170      0.00000
    602       5.4200      0.00000
    603       5.4203      0.00000
    604       5.4227      0.00000
    605       5.4239      0.00000
    606       5.4316      0.00000
    607       5.4322      0.00000
    608       5.4446      0.00000
    609       5.4449      0.00000
    610       5.4489      0.00000
    611       5.4551      0.00000
    612       5.4578      0.00000
    613       5.4594      0.00000
    614       5.4728      0.00000
    615       5.4740      0.00000
    616       5.4777      0.00000
    617       5.4779      0.00000
    618       5.4808      0.00000
    619       5.4853      0.00000
    620       5.4858      0.00000
    621       5.4876      0.00000
    622       5.4941      0.00000
    623       5.5023      0.00000
    624       5.5112      0.00000
    625       5.5119      0.00000
    626       5.5143      0.00000
    627       5.5237      0.00000
    628       5.5355      0.00000
    629       5.5449      0.00000
    630       5.5520      0.00000
    631       5.5547      0.00000
    632       5.5656      0.00000
    633       5.6549      0.00000
    634       5.9013      0.00000
    635       6.0447      0.00000
    636       6.1840      0.00000
    637       6.2791      0.00000
    638       6.2851      0.00000
    639       6.3668      0.00000
    640       6.4337      0.00000
    641       6.4744      0.00000
    642       6.5088      0.00000
    643       6.5516      0.00000
    644       6.6297      0.00000
    645       6.6521      0.00000
    646       6.7213      0.00000
    647       6.8319      0.00000
    648       6.8832      0.00000
    649       6.9014      0.00000
    650       6.9095      0.00000
    651       6.9214      0.00000
    652       6.9271      0.00000
    653       6.9483      0.00000
    654       6.9759      0.00000
    655       7.0397      0.00000
    656       7.0438      0.00000
    657       7.0562      0.00000
    658       7.0682      0.00000
    659       7.0823      0.00000
    660       7.0859      0.00000
    661       7.0933      0.00000
    662       7.0935      0.00000
    663       7.1044      0.00000
    664       7.1054      0.00000
    665       7.1264      0.00000
    666       7.1503      0.00000
    667       7.1871      0.00000
    668       7.1944      0.00000
    669       7.2200      0.00000
    670       7.2863      0.00000
    671       7.2883      0.00000
    672       7.3270      0.00000
    673       7.3298      0.00000
    674       7.3321      0.00000
    675       7.3407      0.00000
    676       7.3450      0.00000
    677       7.3586      0.00000
    678       7.3726      0.00000
    679       7.3730      0.00000
    680       7.3829      0.00000
    681       7.3930      0.00000
    682       7.3948      0.00000
    683       7.3977      0.00000
    684       7.4025      0.00000
    685       7.4121      0.00000
    686       7.4441      0.00000
    687       7.4477      0.00000
    688       7.4788      0.00000
    689       7.4865      0.00000
    690       7.4957      0.00000
    691       7.5218      0.00000
    692       7.5462      0.00000
    693       7.5528      0.00000
    694       7.6251      0.00000
    695       7.6359      0.00000
    696       7.6507      0.00000
    697       7.6670      0.00000
    698       7.6684      0.00000
    699       7.6739      0.00000
    700       7.6757      0.00000
    701       7.6800      0.00000
    702       7.6810      0.00000
    703       7.6817      0.00000
    704       7.6870      0.00000
    705       7.7021      0.00000
    706       7.7031      0.00000
    707       7.7059      0.00000
    708       7.7094      0.00000
    709       7.7284      0.00000
    710       7.7367      0.00000
    711       7.7405      0.00000
    712       7.7417      0.00000
    713       7.7426      0.00000
    714       7.7428      0.00000
    715       7.7486      0.00000
    716       7.7495      0.00000
    717       7.7673      0.00000
    718       7.7699      0.00000
    719       7.7703      0.00000
    720       7.7717      0.00000
    721       7.7744      0.00000
    722       7.7965      0.00000
    723       7.8072      0.00000
    724       7.8149      0.00000
    725       7.8337      0.00000
    726       7.8394      0.00000
    727       7.8495      0.00000
    728       7.8596      0.00000
    729       7.8651      0.00000
    730       7.9578      0.00000
    731       7.9718      0.00000
    732       8.0154      0.00000
    733       8.0237      0.00000
    734       8.0296      0.00000
    735       8.0342      0.00000
    736       8.0660      0.00000
    737       8.0834      0.00000
    738       8.0877      0.00000
    739       8.0944      0.00000
    740       8.0971      0.00000
    741       8.1046      0.00000
    742       8.1601      0.00000
    743       8.1827      0.00000
    744       8.1888      0.00000
    745       8.2060      0.00000
    746       8.2074      0.00000
    747       8.2095      0.00000
    748       8.2278      0.00000
    749       8.2376      0.00000
    750       8.2400      0.00000
    751       8.2491      0.00000
    752       8.2725      0.00000
    753       8.3195      0.00000
    754       8.3202      0.00000
    755       8.3308      0.00000
    756       8.3457      0.00000
    757       8.3703      0.00000
    758       8.4024      0.00000
    759       8.4304      0.00000
    760       8.4499      0.00000
    761       8.4691      0.00000
    762       8.4822      0.00000
    763       8.4836      0.00000
    764       8.6820      0.00000
    765       8.7297      0.00000
    766       9.5962      0.00000
    767      10.5933      0.00000
    768      14.1098      0.00000
    769      14.9682      0.00000
    770      15.6679      0.00000
    771      15.8984      0.00000
    772      16.0623      0.00000
    773      16.1802      0.00000
    774      16.2077      0.00000
    775      19.5504      0.00000
    776      20.2689      0.00000
    777      21.6250      0.00000
    778      22.0166      0.00000
    779      26.0514      0.00000
    780      52.3358      0.00000
    781      66.9418      0.00000
    782      99.3837      0.00000
    783     142.2068      0.00000
    784     344.2477      0.00000

 k-point     2 :       0.5000    0.0000    0.0000
  band No.  band energies     occupation 
      1    -325.6001      1.00000
      2     -26.8112      1.00000
      3     -17.4203      1.00000
      4     -16.7720      1.00000
      5     -15.7254      1.00000
      6     -15.1558      1.00000
      7     -14.2106      1.00000
      8     -12.8236      1.00000
      9     -11.8374      1.00000
     10     -11.0044      1.00000
     11     -10.8745      1.00000
     12     -10.8120      1.00000
     13     -10.8024      1.00000
     14     -10.7689      1.00000
     15     -10.7499      1.00000
     16     -10.7318      1.00000
     17     -10.6856      1.00000
     18     -10.6789      1.00000
     19     -10.6345      1.00000
     20     -10.6162      1.00000
     21     -10.6058      1.00000
     22     -10.5898      1.00000
     23     -10.5746      1.00000
     24     -10.5418      1.00000
     25     -10.5346      1.00000
     26     -10.5043      1.00000
     27     -10.4913      1.00000
     28     -10.4822      1.00000
     29     -10.4634      1.00000
     30     -10.4533      1.00000
     31     -10.4363      1.00000
     32     -10.4258      1.00000
     33     -10.4018      1.00000
     34     -10.3917      1.00000
     35     -10.3521      1.00000
     36     -10.3472      1.00000
     37     -10.3324      1.00000
     38     -10.3105      1.00000
     39     -10.2666      1.00000
     40     -10.2215      1.00000
     41     -10.2036      1.00000
     42     -10.1993      1.00000
     43     -10.1467      1.00000
     44     -10.1360      1.00000
     45     -10.0543      1.00000
     46     -10.0226      1.00000
     47      -9.9030      1.00000
     48      -9.8786      1.00000
     49      -9.7056      1.00000
     50      -9.5987      1.00000
     51      -9.4129      1.00000
     52      -9.2143      1.00000
     53      -9.1736      1.00000
     54      -9.0977      1.00000
     55      -9.0779      1.00000
     56      -9.0331      1.00000
     57      -8.9623      1.00000
     58      -8.9109      1.00000
     59      -8.7870      1.00000
     60      -8.4433      1.00000
     61      -8.4224      1.00000
     62      -8.4045      1.00000
     63      -8.3825      1.00000
     64      -8.3637      1.00000
     65      -8.2928      1.00000
     66      -8.1785      1.00000
     67      -8.1006      1.00000
     68      -7.9063      1.00000
     69      -7.9029      1.00000
     70      -7.8967      1.00000
     71      -7.8885      1.00000
     72      -7.8840      1.00000
     73      -7.8754      1.00000
     74      -7.8674      1.00000
     75      -7.8611      1.00000
     76      -7.8549      1.00000
     77      -7.8462      1.00000
     78      -7.8430      1.00000
     79      -7.8277      1.00000
     80      -7.8242      1.00000
     81      -7.8185      1.00000
     82      -7.8148      1.00000
     83      -7.8118      1.00000
     84      -7.8038      1.00000
     85      -7.7961      1.00000
     86      -7.7902      1.00000
     87      -7.7872      1.00000
     88      -7.7810      1.00000
     89      -7.7785      1.00000
     90      -7.7741      1.00000
     91      -7.7687      1.00000
     92      -7.7659      1.00000
     93      -7.7612      1.00000
     94      -7.7546      1.00000
     95      -7.7511      1.00000
     96      -7.7477      1.00000
[...]
 l=   3
     0.0000000     0.0000000     0.0000000     0.0000000     0.0000000     0.0000000     0.0000000
     0.0000000     0.0000000     0.0000000     0.0000000     0.0000000     0.0000000     0.0000000
     0.0000000     0.0000000     0.0000000     0.0000000     0.0000000     0.0000000     0.0000000
     0.0000000     0.0000000     0.0000000     0.0000000     0.0000000     0.0000000     0.0000000
     0.0000000     0.0000000     0.0000000     0.0000000     0.0000000     0.0000000     0.0000000
     0.0000000     0.0000000     0.0000000     0.0000000     0.0000000     0.0000000     0.0000000
     0.0000000     0.0000000     0.0000000     0.0000000     0.0000000     0.0000000     0.0000000

 Ion:   61  E_soc:     -0.1816822
 l=   1
     0.0000000    -0.0301369    -0.0301861
    -0.0301369     0.0000000    -0.0302898
    -0.0301861    -0.0302898     0.0000000
 l=   2
     0.0000000    -0.0000174     0.0000000    -0.0000256    -0.0000570
    -0.0000174    -0.0000000    -0.0000435    -0.0000226    -0.0000132
     0.0000000    -0.0000435     0.0000000    -0.0000384     0.0000000
    -0.0000256    -0.0000226    -0.0000384    -0.0000000    -0.0000107
    -0.0000570    -0.0000132     0.0000000    -0.0000107     0.0000000
 l=   3
     0.0000000     0.0000000     0.0000000     0.0000000     0.0000000     0.0000000     0.0000000
     0.0000000     0.0000000     0.0000000     0.0000000     0.0000000     0.0000000     0.0000000
     0.0000000     0.0000000     0.0000000     0.0000000     0.0000000     0.0000000     0.0000000
     0.0000000     0.0000000     0.0000000     0.0000000     0.0000000     0.0000000     0.0000000
     0.0000000     0.0000000     0.0000000     0.0000000     0.0000000     0.0000000     0.0000000
     0.0000000     0.0000000     0.0000000     0.0000000     0.0000000     0.0000000     0.0000000
     0.0000000     0.0000000     0.0000000     0.0000000     0.0000000     0.0000000     0.0000000

 Ion:   62  E_soc:     -0.1788051
 l=   1
     0.0000000    -0.0302320    -0.0291917
    -0.0302320     0.0000000    -0.0297638
    -0.0291917    -0.0297638     0.0000000
 l=   2
    -0.0000000    -0.0000193     0.0000000    -0.0000281    -0.0000547
    -0.0000193     0.0000000    -0.0000431    -0.0000165    -0.0000052
     0.0000000    -0.0000431     0.0000000    -0.0000377     0.0000000
    -0.0000281    -0.0000165    -0.0000377    -0.0000000    -0.0000105
    -0.0000547    -0.0000052     0.0000000    -0.0000105    -0.0000000
 l=   3
     0.0000000     0.0000000     0.0000000     0.0000000     0.0000000     0.0000000     0.0000000
     0.0000000     0.0000000     0.0000000     0.0000000     0.0000000     0.0000000     0.0000000
     0.0000000     0.0000000     0.0000000     0.0000000     0.0000000     0.0000000     0.0000000
     0.0000000     0.0000000     0.0000000     0.0000000     0.0000000     0.0000000     0.0000000
     0.0000000     0.0000000     0.0000000     0.0000000     0.0000000     0.0000000     0.0000000
     0.0000000     0.0000000     0.0000000     0.0000000     0.0000000     0.0000000     0.0000000
     0.0000000     0.0000000     0.0000000     0.0000000     0.0000000     0.0000000     0.0000000

 Ion:   63  E_soc:     -0.1829530
 l=   1
     0.0000000    -0.0305216    -0.0303143
    -0.0305216     0.0000000    -0.0304445
    -0.0303143    -0.0304445     0.0000000
 l=   2
    -0.0000000    -0.0000208     0.0000000    -0.0000291    -0.0000490
    -0.0000208     0.0000000    -0.0000335    -0.0000200    -0.0000093
     0.0000000    -0.0000335     0.0000000    -0.0000274     0.0000000
    -0.0000291    -0.0000200    -0.0000274    -0.0000000    -0.0000070
    -0.0000490    -0.0000093     0.0000000    -0.0000070    -0.0000000
 l=   3
     0.0000000     0.0000000     0.0000000     0.0000000     0.0000000     0.0000000     0.0000000
     0.0000000     0.0000000     0.0000000     0.0000000     0.0000000     0.0000000     0.0000000
     0.0000000     0.0000000     0.0000000     0.0000000     0.0000000     0.0000000     0.0000000
     0.0000000     0.0000000     0.0000000     0.0000000     0.0000000     0.0000000     0.0000000
     0.0000000     0.0000000     0.0000000     0.0000000     0.0000000     0.0000000     0.0000000
     0.0000000     0.0000000     0.0000000     0.0000000     0.0000000     0.0000000     0.0000000
     0.0000000     0.0000000     0.0000000     0.0000000     0.0000000     0.0000000     0.0000000

 Ion:   64  E_soc:     -0.1793157
 l=   1
     0.0000000    -0.0300118    -0.0296637
    -0.0300118     0.0000000    -0.0297448
    -0.0296637    -0.0297448     0.0000000
 l=   2
    -0.0000000    -0.0000271     0.0000000    -0.0000328    -0.0000499
    -0.0000271    -0.0000000    -0.0000425    -0.0000247    -0.0000158
     0.0000000    -0.0000425     0.0000000    -0.0000333     0.0000000
    -0.0000328    -0.0000247    -0.0000333    -0.0000000    -0.0000113
    -0.0000499    -0.0000158     0.0000000    -0.0000113    -0.0000000
 l=   3
     0.0000000     0.0000000     0.0000000     0.0000000     0.0000000     0.0000000     0.0000000
     0.0000000     0.0000000     0.0000000     0.0000000     0.0000000     0.0000000     0.0000000
     0.0000000     0.0000000     0.0000000     0.0000000     0.0000000     0.0000000     0.0000000
     0.0000000     0.0000000     0.0000000     0.0000000     0.0000000     0.0000000     0.0000000
     0.0000000     0.0000000     0.0000000     0.0000000     0.0000000     0.0000000     0.0000000
     0.0000000     0.0000000     0.0000000     0.0000000     0.0000000     0.0000000     0.0000000
     0.0000000     0.0000000     0.0000000     0.0000000     0.0000000     0.0000000     0.0000000

 Ion:   65  E_soc:     -0.1825202
 l=   1
     0.0000000    -0.0305374    -0.0303082
    -0.0305374     0.0000000    -0.0302201
    -0.0303082    -0.0302201     0.0000000
 l=   2
    -0.0000000    -0.0000250     0.0000000    -0.0000210    -0.0000441
    -0.0000250     0.0000000    -0.0000313    -0.0000278    -0.0000130
     0.0000000    -0.0000313     0.0000000    -0.0000240     0.0000000
    -0.0000210    -0.0000278    -0.0000240    -0.0000000    -0.0000081
    -0.0000441    -0.0000130     0.0000000    -0.0000081    -0.0000000
 l=   3
     0.0000000     0.0000000     0.0000000     0.0000000     0.0000000     0.0000000     0.0000000
     0.0000000     0.0000000     0.0000000     0.0000000     0.0000000     0.0000000     0.0000000
     0.0000000     0.0000000     0.0000000     0.0000000     0.0000000     0.0000000     0.0000000
     0.0000000     0.0000000     0.0000000     0.0000000     0.0000000     0.0000000     0.0000000
     0.0000000     0.0000000     0.0000000     0.0000000     0.0000000     0.0000000     0.0000000
     0.0000000     0.0000000     0.0000000     0.0000000     0.0000000     0.0000000     0.0000000
     0.0000000     0.0000000     0.0000000     0.0000000     0.0000000     0.0000000     0.0000000



 total charge     

# of ion       s       p       d       tot
------------------------------------------
    1        0.478   0.311   9.454  10.243
    2        0.458   0.317   9.462  10.237
    3        0.458   0.319   9.464  10.240
    4        0.450   0.317   9.453  10.220
    5        0.466   0.319   9.531  10.315
    6        0.461   0.319   9.530  10.310
    7        0.461   0.319   9.530  10.310
    8        0.459   0.315   9.530  10.305
    9        0.455   0.319   9.450  10.224
   10        0.455   0.310   9.468  10.233
   11        0.450   0.318   9.444  10.212
   12        0.455   0.319   9.450  10.223
   13        0.464   0.318   9.530  10.312
   14        0.467   0.319   9.530  10.317
   15        0.461   0.315   9.530  10.306
   16        0.464   0.318   9.530  10.312
   17        0.466   0.318   9.530  10.314
   18        0.471   0.320   9.531  10.321
   19        0.463   0.316   9.530  10.309
   20        0.466   0.319   9.530  10.315
   21        0.464   0.319   9.530  10.314
   22        0.464   0.309   9.532  10.304
   23        0.461   0.317   9.529  10.307
   24        0.466   0.318   9.530  10.314
   25        0.469   0.320   9.531  10.320
   26        0.463   0.319   9.529  10.311
   27        0.463   0.318   9.529  10.311
   28        0.462   0.316   9.530  10.308
   29        0.463   0.308   9.532  10.303
   30        0.465   0.319   9.530  10.313
   31        0.465   0.319   9.530  10.314
   32        0.462   0.318   9.529  10.309
   33        0.745   0.209   9.519  10.473
   34        1.246   2.141   0.028   3.415
   35        1.305   2.142   0.028   3.475
   36        1.266   2.147   0.023   3.436
   37        1.255   2.145   0.024   3.424
   38        1.279   2.167   0.022   3.468
   39        1.318   2.155   0.024   3.496
   40        1.290   2.160   0.021   3.472
   41        1.279   2.166   0.022   3.468
   42        1.294   2.159   0.023   3.477
   43        1.263   2.147   0.025   3.435
   44        1.257   2.145   0.029   3.432
   45        1.273   2.147   0.029   3.449
   46        1.278   2.161   0.022   3.461
   47        1.291   2.161   0.021   3.474
   48        1.290   2.162   0.021   3.473
   49        1.283   2.162   0.022   3.467
   50        1.281   2.168   0.023   3.471
   51        1.280   2.167   0.022   3.469
   52        1.280   2.162   0.022   3.464
   53        1.281   2.163   0.022   3.466
   54        1.302   2.147   0.025   3.474
   55        1.304   2.149   0.024   3.477
   56        1.241   2.141   0.027   3.409
   57        1.243   2.141   0.026   3.411
   58        1.280   2.163   0.022   3.464
   59        1.276   2.168   0.023   3.467
   60        1.281   2.162   0.022   3.465
   61        1.276   2.167   0.023   3.466
   62        1.247   2.140   0.027   3.413
   63        1.304   2.142   0.025   3.471
   64        1.258   2.144   0.024   3.426
   65        1.309   2.149   0.024   3.482
--------------------------------------------------
tot         56.449  79.294 314.652 450.395



 magnetization (x)

# of ion       s       p       d       tot
------------------------------------------
    1        0.022  -0.002  -0.010   0.010
    2       -0.002  -0.002  -0.015  -0.019
    3       -0.000  -0.003  -0.012  -0.015
    4       -0.003  -0.001  -0.015  -0.019
    5       -0.003  -0.002   0.001  -0.004
    6       -0.004  -0.003   0.001  -0.005
    7       -0.004  -0.003   0.001  -0.005
    8       -0.004  -0.002   0.001  -0.005
    9       -0.001  -0.001  -0.010  -0.012
   10       -0.001  -0.002  -0.014  -0.016
   11       -0.004  -0.001  -0.016  -0.021
   12       -0.001  -0.001  -0.012  -0.015
   13       -0.003  -0.003   0.001  -0.004
   14       -0.002  -0.003   0.001  -0.004
   15       -0.004  -0.002   0.001  -0.005
   16       -0.003  -0.003   0.001  -0.004
   17       -0.002  -0.003   0.001  -0.004
   18       -0.001  -0.002   0.002  -0.002
   19       -0.003  -0.002   0.001  -0.004
   20       -0.002  -0.003   0.001  -0.004
   21       -0.003  -0.002   0.001  -0.004
   22        0.001  -0.002   0.002   0.001
   23       -0.003  -0.003   0.001  -0.005
   24       -0.003  -0.003   0.001  -0.004
   25       -0.002  -0.002   0.002  -0.003
   26       -0.004  -0.003   0.001  -0.006
   27       -0.004  -0.003   0.001  -0.006
   28       -0.004  -0.002   0.001  -0.005
   29        0.000  -0.003   0.002  -0.000
   30       -0.002  -0.003   0.001  -0.004
   31       -0.002  -0.003   0.001  -0.004
   32       -0.004  -0.002   0.001  -0.006
   33        0.005   0.002   0.002   0.009
   34       -0.014   0.021   0.000   0.007
   35        0.001   0.025   0.001   0.027
   36       -0.014   0.023   0.000   0.010
   37       -0.018   0.022   0.000   0.004
   38       -0.014   0.023   0.000   0.009
   39        0.001   0.024   0.000   0.024
   40       -0.008   0.023   0.000   0.015
   41       -0.015   0.023   0.000   0.009
   42       -0.004   0.023   0.000   0.020
   43       -0.020   0.022   0.000   0.002
   44       -0.015   0.023   0.000   0.008
   45       -0.007   0.022   0.000   0.016
   46       -0.016   0.023   0.000   0.007
   47       -0.009   0.024   0.000   0.015
   48       -0.009   0.023   0.000   0.015
   49       -0.013   0.023   0.000   0.010
   50       -0.016   0.023   0.000   0.007
   51       -0.016   0.023   0.000   0.007
   52       -0.016   0.023   0.000   0.007
   53       -0.015   0.024   0.000   0.009
   54       -0.005   0.024   0.001   0.019
   55       -0.004   0.024   0.000   0.020
   56       -0.017   0.021   0.000   0.004
   57       -0.015   0.022   0.000   0.008
   58       -0.015   0.023   0.000   0.008
   59       -0.017   0.023   0.000   0.006
   60       -0.015   0.023   0.000   0.009
   61       -0.018   0.023   0.000   0.005
   62       -0.013   0.021   0.000   0.008
   63       -0.000   0.023   0.000   0.023
   64       -0.015   0.022   0.000   0.006
   65       -0.002   0.024   0.001   0.023
--------------------------------------------------
tot         -0.425   0.658  -0.061   0.172



 magnetization (y)

# of ion       s       p       d       tot
------------------------------------------
    1        0.004  -0.002   0.009   0.011
    2       -0.001  -0.002   0.003   0.000
    3       -0.002  -0.002   0.004   0.000
    4       -0.003  -0.002   0.004  -0.001
    5       -0.004  -0.003   0.001  -0.005
    6       -0.003  -0.003   0.001  -0.005
    7       -0.003  -0.003   0.001  -0.005
    8       -0.006  -0.002   0.001  -0.006
    9       -0.001  -0.002  -0.000  -0.004
   10        0.002  -0.002   0.004   0.004
   11       -0.003  -0.002  -0.001  -0.007
   12       -0.003  -0.002   0.004  -0.001
   13       -0.004  -0.003   0.001  -0.006
   14       -0.002  -0.002   0.001  -0.003
   15       -0.004  -0.002   0.001  -0.005
   16       -0.004  -0.003   0.001  -0.005
   17       -0.003  -0.003   0.001  -0.005
   18       -0.001  -0.002   0.002  -0.001
   19       -0.003  -0.002   0.001  -0.004
   20       -0.004  -0.003   0.001  -0.006
   21       -0.002  -0.002   0.001  -0.003
   22        0.000  -0.002   0.002   0.000
   23       -0.003  -0.003   0.001  -0.005
   24       -0.001  -0.002   0.001  -0.002
   25       -0.002  -0.002   0.002  -0.003
   26       -0.003  -0.002   0.001  -0.004
   27       -0.004  -0.003   0.001  -0.006
   28       -0.006  -0.002   0.001  -0.007
   29       -0.000  -0.002   0.002  -0.001
   30       -0.003  -0.003   0.001  -0.005
   31       -0.003  -0.003   0.001  -0.004
   32       -0.004  -0.003   0.001  -0.005
   33        0.005   0.002   0.002   0.009
   34       -0.014   0.022   0.000   0.008
   35        0.001   0.025   0.001   0.027
   36       -0.014   0.023   0.000   0.010
   37       -0.018   0.023   0.000   0.005
   38       -0.014   0.023   0.000   0.009
   39       -0.000   0.024   0.000   0.024
   40       -0.010   0.023   0.000   0.014
   41       -0.014   0.022   0.000   0.008
   42       -0.004   0.023   0.000   0.019
   43       -0.018   0.021   0.000   0.004
   44       -0.016   0.022   0.000   0.007
   45       -0.008   0.023   0.000   0.015
   46       -0.017   0.023   0.000   0.007
   47       -0.008   0.022   0.000   0.015
   48       -0.009   0.022   0.000   0.014
   49       -0.014   0.023   0.000   0.009
   50       -0.016   0.023   0.000   0.007
   51       -0.015   0.023   0.000   0.008
   52       -0.015   0.023   0.000   0.008
   53       -0.015   0.023   0.000   0.008
   54       -0.005   0.025   0.001   0.021
   55       -0.005   0.024   0.000   0.020
   56       -0.016   0.020   0.000   0.004
   57       -0.015   0.021   0.000   0.007
   58       -0.015   0.023   0.000   0.009
   59       -0.016   0.022   0.000   0.006
   60       -0.015   0.023   0.000   0.008
   61       -0.018   0.023   0.000   0.005
   62       -0.014   0.022  -0.000   0.009
   63       -0.000   0.025   0.001   0.025
   64       -0.015   0.022   0.000   0.007
   65       -0.002   0.025   0.000   0.023
--------------------------------------------------
tot         -0.447   0.659   0.070   0.282



 magnetization (z)

# of ion       s       p       d       tot
------------------------------------------
    1        0.011  -0.002   0.026   0.036
    2        0.004   0.000   0.026   0.031
    3        0.010  -0.000   0.022   0.032
    4        0.006   0.001   0.027   0.034
    5       -0.002  -0.002   0.001  -0.003
    6       -0.005  -0.003   0.001  -0.006
    7       -0.005  -0.003   0.001  -0.007
    8       -0.004  -0.002   0.001  -0.005
    9        0.004  -0.000   0.041   0.045
   10        0.008  -0.002   0.024   0.030
   11        0.006  -0.001   0.044   0.049
   12        0.004  -0.001   0.040   0.043
   13       -0.002  -0.003   0.001  -0.004
   14       -0.003  -0.003   0.001  -0.004
   15       -0.005  -0.003   0.001  -0.006
   16       -0.003  -0.003   0.001  -0.004
   17       -0.006  -0.002   0.001  -0.006
   18       -0.005  -0.002   0.001  -0.006
   19       -0.006  -0.003   0.001  -0.008
   20       -0.005  -0.003   0.001  -0.007
   21       -0.004  -0.003   0.001  -0.005
   22        0.001  -0.003   0.002  -0.000
   23       -0.006  -0.001   0.001  -0.005
   24       -0.005  -0.002   0.001  -0.005
   25       -0.005  -0.003   0.001  -0.006
   26       -0.005  -0.002   0.001  -0.006
   27       -0.005  -0.002   0.001  -0.007
   28       -0.007  -0.003   0.001  -0.008
   29       -0.001  -0.003   0.002  -0.001
   30       -0.004  -0.002   0.001  -0.005
   31       -0.004  -0.003   0.001  -0.006
   32       -0.006  -0.002   0.001  -0.007
   33        0.007   0.002   0.002   0.012
   34       -0.010   0.048  -0.006   0.032
   35        0.008   0.037  -0.004   0.041
   36       -0.017   0.037  -0.001   0.019
   37       -0.020   0.044  -0.001   0.023
   38       -0.018   0.022  -0.000   0.005
   39        0.000   0.024   0.000   0.024
   40       -0.011   0.024  -0.000   0.013
   41       -0.017   0.023  -0.000   0.005
   42       -0.001   0.027  -0.001   0.024
   43       -0.018   0.034  -0.002   0.014
   44       -0.012   0.038  -0.007   0.019
   45       -0.003   0.039  -0.007   0.029
   46       -0.017   0.023  -0.000   0.006
   47       -0.009   0.023   0.000   0.014
   48       -0.010   0.023   0.000   0.013
   49       -0.014   0.022   0.000   0.008
   50       -0.017   0.022   0.000   0.005
   51       -0.017   0.022  -0.000   0.005
   52       -0.018   0.022  -0.000   0.004
   53       -0.017   0.023   0.000   0.005
   54       -0.003   0.034  -0.001   0.031
   55       -0.004   0.031  -0.001   0.027
   56       -0.014   0.047  -0.004   0.029
   57       -0.011   0.047  -0.004   0.032
   58       -0.016   0.023   0.000   0.006
   59       -0.020   0.021  -0.000   0.002
   60       -0.017   0.023  -0.000   0.006
   61       -0.018   0.022  -0.000   0.004
   62       -0.010   0.048  -0.004   0.033
   63        0.003   0.037  -0.002   0.038
   64       -0.018   0.045  -0.002   0.025
   65       -0.002   0.032  -0.001   0.029
--------------------------------------------------
tot         -0.408   0.925   0.235   0.752


 total amount of memory used by VASP MPI-rank0   125247. kBytes
=======================================================================

   base      :      30000. kBytes
   nonl-proj :       5136. kBytes
   fftplans  :       6884. kBytes
   grid      :      12386. kBytes
   one-center:        186. kBytes
   HF        :        129. kBytes
   nonlr-proj:      10316. kBytes
   wavefun   :      60210. kBytes

  
  
 General timing and accounting informations for this job:
 ========================================================
  
                  Total CPU time used (sec):     4593.081
                            User time (sec):     4578.819
                          System time (sec):       14.262
                         Elapsed time (sec):     4603.689
  
                   Maximum memory used (kb):      626552.
                   Average memory used (kb):           0.
  
                          Minor page faults:       159820
                          Major page faults:            0
                 Voluntary context switches:         9153
