 vasp.5.4.4.18Apr17-6-g9f103f2a35 (build Mar 14 2021 20:37:43) complex           
 executed on    HPECrayEX-GNU-MKL date 2021.03.27  06:29:43
 running on  512 total cores
 distrk:  each k-point on  256 cores,    2 groups
 distr:  one band on NCORES_PER_BAND=  32 cores,    8 groups


--------------------------------------------------------------------------------------------------------


 INCAR:
 POTCAR:    PAW_PBE Cd 06Sep2000                  
 POTCAR:    PAW_PBE Te 08Apr2002                  

 ----------------------------------------------------------------------------- 
|                                                                             |
|           W    W    AA    RRRRR   N    N  II  N    N   GGGG   !!!           |
|           W    W   A  A   R    R  NN   N  II  NN   N  G    G  !!!           |
|           W    W  A    A  R    R  N N  N  II  N N  N  G       !!!           |
|           W WW W  AAAAAA  RRRRR   N  N N  II  N  N N  G  GGG   !            |
|           WW  WW  A    A  R   R   N   NN  II  N   NN  G    G                |
|           W    W  A    A  R    R  N    N  II  N    N   GGGG   !!!           |
|                                                                             |
|      You have enabled k-point parallelism (KPAR>1).                         |
|      This developmental code was originally  written by Paul Kent at ORNL,  |
|      and carefully double checked in Vienna.                                |
|      GW as well as linear response parallelism added by Martijn Marsman     |
|      and Georg Kresse.                                                      |
|      Carefully verify results versus KPAR=1.                                |
|      Report problems to Paul Kent and Vienna.                               |
|                                                                             |
 ----------------------------------------------------------------------------- 

 POTCAR:    PAW_PBE Cd 06Sep2000                  
   VRHFIN =Cd : s2 d10                                                          
   LEXCH  = PE                                                                  
   EATOM  =  1293.1815 eV,   95.0462 Ry                                         
                                                                                
   TITEL  = PAW_PBE Cd 06Sep2000                                                
   LULTRA =        F    use ultrasoft PP ?                                      
   IUNSCR =        1    unscreen: 0-lin 1-nonlin 2-no                           
   RPACOR =    2.000    partial core radius                                     
   POMASS =  112.411; ZVAL   =   12.000    mass and valenz                      
   RCORE  =    2.300    outmost cutoff radius                                   
   RWIGS  =    2.980; RWIGS  =    1.577    wigner-seitz radius (au A)           
   ENMAX  =  274.336; ENMIN  =  205.752 eV                                      
   RCLOC  =    2.054    cutoff for local pot                                    
   LCOR   =        T    correct aug charges                                     
   LPAW   =        T    paw PP                                                  
   EAUG   =  456.106                                                            
   DEXC   =    0.000                                                            
   RMAX   =    2.358    core radius for proj-oper                               
   RAUG   =    1.300    factor for augmentation sphere                          
   RDEP   =    2.450    radius for radial grids                                 
   RDEPT  =    1.955    core radius for aug-charge                              
                                                                                
   Atomic configuration                                                         
   12 entries                                                                   
     n  l   j            E        occ.                                          
     1  0  0.50    -26519.7817   2.0000                                         
     2  0  0.50     -3936.9612   2.0000                                         
     2  1  1.50     -3532.2230   6.0000                                         
     3  0  0.50      -733.7908   2.0000                                         
     3  1  1.50      -601.0792   6.0000                                         
     3  2  2.50      -393.5307  10.0000                                         
     4  0  0.50      -105.8977   2.0000                                         
     4  1  1.50       -66.9488   6.0000                                         
     4  2  2.50       -11.7331  10.0000                                         
     5  0  0.50        -5.6592   2.0000                                         
     5  1  0.50        -1.3606   0.0000                                         
     4  3  2.50        -1.3606   0.0000                                         
   Description                                                                  
     l       E           TYP  RCUT    TYP  RCUT                                 
     2    -11.7331479     23  2.300                                             
     2    -13.0937305     23  2.300                                             
     0     -5.6591502     23  2.300                                             
     0     -1.5561433     23  2.300                                             
     1     -2.7211652     23  2.300                                             
     1      8.3548275     23  2.300                                             
  local pseudopotential read in
  partial core-charges read in
  partial kinetic energy density read in
  atomic valenz-charges read in
  non local Contribution for L=           2  read in
    real space projection operators read in
  non local Contribution for L=           2  read in
    real space projection operators read in
  non local Contribution for L=           0  read in
    real space projection operators read in
  non local Contribution for L=           0  read in
    real space projection operators read in
  non local Contribution for L=           1  read in
    real space projection operators read in
  non local Contribution for L=           1  read in
    real space projection operators read in
    PAW grid and wavefunctions read in

   number of l-projection  operators is LMAX  =           6
   number of lm-projection operators is LMMAX =          18

 POTCAR:    PAW_PBE Te 08Apr2002                  
   VRHFIN =Te: s2p4                                                             
   LEXCH  = PE                                                                  
   EATOM  =   223.2721 eV,   16.4100 Ry                                         
                                                                                
   TITEL  = PAW_PBE Te 08Apr2002                                                
   LULTRA =        F    use ultrasoft PP ?                                      
   IUNSCR =        1    unscreen: 0-lin 1-nonlin 2-no                           
   RPACOR =    2.200    partial core radius                                     
   POMASS =  127.600; ZVAL   =    6.000    mass and valenz                      
   RCORE  =    2.300    outmost cutoff radius                                   
   RWIGS  =    2.900; RWIGS  =    1.535    wigner-seitz radius (au A)           
   ENMAX  =  174.982; ENMIN  =  131.236 eV                                      
   ICORE  =        3    local potential                                         
   LCOR   =        T    correct aug charges                                     
   LPAW   =        T    paw PP                                                  
   EAUG   =  368.792                                                            
   DEXC   =    0.000                                                            
   RMAX   =    2.345    core radius for proj-oper                               
   RAUG   =    1.300    factor for augmentation sphere                          
   RDEP   =    2.397    radius for radial grids                                 
   RDEPT  =    2.174    core radius for aug-charge                              
                                                                                
   Atomic configuration                                                         
   13 entries                                                                   
     n  l   j            E        occ.                                          
     1  0  0.50    -31621.2075   2.0000                                         
     2  0  0.50     -4848.7941   2.0000                                         
     2  1  1.50     -4352.1960   6.0000                                         
     3  0  0.50      -964.9612   2.0000                                         
     3  1  1.50      -803.6179   6.0000                                         
     3  2  2.50      -559.8710  10.0000                                         
     4  0  0.50      -164.3522   2.0000                                         
     4  1  1.50      -114.3756   6.0000                                         
     4  2  2.50       -41.6483  10.0000                                         
     5  0  0.50       -15.1072   2.0000                                         
     5  1  0.50        -5.9526   4.0000                                         
     5  2  1.50        -5.4423   0.0000                                         
     4  3  2.50        -5.4423   0.0000                                         
   Description                                                                  
     l       E           TYP  RCUT    TYP  RCUT                                 
     0    -15.1072389     23  2.300                                             
     0    -16.4678215     23  2.300                                             
     1     -5.9526306     23  2.300                                             
     1     -2.4873968     23  2.300                                             
     2     -5.4423304     23  2.300                                             
     3     -1.3605826     23  2.300                                             
  local pseudopotential read in
  partial core-charges read in
  partial kinetic energy density read in
  atomic valenz-charges read in
  non local Contribution for L=           0  read in
    real space projection operators read in
  non local Contribution for L=           0  read in
    real space projection operators read in
  non local Contribution for L=           1  read in
    real space projection operators read in
  non local Contribution for L=           1  read in
    real space projection operators read in
  non local Contribution for L=           2  read in
    real space projection operators read in
    PAW grid and wavefunctions read in

   number of l-projection  operators is LMAX  =           5
   number of lm-projection operators is LMMAX =          13


 ----------------------------------------------------------------------------- 
|                                                                             |
|  ADVICE TO THIS USER RUNNING 'VASP/VAMP'   (HEAR YOUR MASTER'S VOICE ...):  |
|                                                                             |
|      You have a (more or less) 'large supercell' and for larger cells       |
|      it might be more efficient to use real space projection opertators     |
|      So try LREAL= Auto  in the INCAR   file.                               |
|      Mind:          For very  accurate calculation you might also keep the  |
|      reciprocal projection scheme          (i.e. LREAL=.FALSE.)             |
|                                                                             |
 ----------------------------------------------------------------------------- 

  PAW_PBE Cd 06Sep2000                  :
 energy of atom  1       EATOM=-1293.1815
 kinetic energy error for atom=    0.0084 (will be added to EATOM!!)
  PAW_PBE Te 08Apr2002                  :
 energy of atom  2       EATOM= -223.2721
 kinetic energy error for atom=    0.0008 (will be added to EATOM!!)


 POSCAR: Cd33 Te32                               
  positions in direct lattice
  No initial velocities read in
 exchange correlation table for  LEXCH =        8
   RHO(1)=    0.500       N(1)  =     2000
   RHO(2)=  100.500       N(2)  =     4000



--------------------------------------------------------------------------------------------------------


 ion  position               nearest neighbor table
   1  0.004  0.996  0.004-  44 2.79  35 2.93  54 2.93  65 2.93  33 2.94
   2  0.001  0.999  0.497-  55 2.82  34 2.82  64 2.82  45 2.84
   3  0.001  0.503  0.001-  63 2.82  56 2.82  37 2.82  42 2.84
   4  1.000  0.501  0.499-  57 2.82  62 2.82  36 2.82  43 2.84
   5  0.497  0.999  0.001-  39 2.82  50 2.82  61 2.82  48 2.84
   6  0.499  0.000  0.499-  38 2.82  51 2.82  60 2.82  49 2.84
   7  0.499  0.501  1.000-  41 2.82  59 2.82  52 2.82  46 2.84
   8  0.501  0.499  0.501-  47 2.82  40 2.83  53 2.83  58 2.83
   9  0.001  0.251  0.253-  54 2.82  34 2.82  62 2.82  42 2.84
  10  0.004  0.254  0.746-  43 2.79  35 2.93  55 2.93  63 2.93  33 2.94
  11  1.000  0.749  0.251-  56 2.82  64 2.82  36 2.82  44 2.84
  12  0.001  0.747  0.749-  65 2.82  57 2.82  37 2.82  45 2.84
  13  0.499  0.250  0.251-  38 2.82  50 2.82  58 2.82  46 2.84
  14  0.497  0.251  0.749-  39 2.82  51 2.82  59 2.82  47 2.84
  15  0.501  0.751  0.249-  48 2.82  40 2.83  52 2.83  60 2.83
  16  0.499  0.749  0.750-  41 2.82  61 2.82  53 2.82  49 2.84
  17  0.251  0.000  0.251-  34 2.82  50 2.82  60 2.82  44 2.84
  18  0.253  0.999  0.749-  35 2.82  51 2.82  61 2.82  45 2.84
  19  0.249  0.499  0.249-  42 2.82  36 2.83  52 2.83  58 2.83
  20  0.251  0.501  0.750-  37 2.82  59 2.82  53 2.82  43 2.84
  21  0.749  0.999  0.253-  54 2.82  38 2.82  64 2.82  48 2.84
  22  0.746  0.996  0.746-  49 2.79  39 2.93  55 2.93  65 2.93  33 2.94
  23  0.750  0.501  0.251-  56 2.82  62 2.82  40 2.82  46 2.84
  24  0.749  0.503  0.749-  63 2.82  57 2.82  41 2.82  47 2.84
  25  0.253  0.251  0.001-  35 2.82  50 2.82  59 2.82  42 2.84
  26  0.251  0.250  0.499-  34 2.82  51 2.82  58 2.82  43 2.84
  27  0.251  0.749  1.000-  37 2.82  61 2.82  52 2.82  44 2.84
  28  0.249  0.751  0.501-  45 2.82  36 2.83  53 2.83  60 2.83
  29  0.746  0.254  0.004-  46 2.79  39 2.93  54 2.93  63 2.93  33 2.94
  30  0.749  0.251  0.497-  55 2.82  38 2.82  62 2.82  47 2.84
  31  0.749  0.747  0.001-  65 2.82  56 2.82  41 2.82  48 2.84
  32  0.750  0.749  0.499-  57 2.82  64 2.82  40 2.82  49 2.84
  33  0.875  0.125  0.875-   1 2.94  10 2.94  22 2.94  29 2.94  35 3.37  39 3.37  54 3.37  55 3.37
                            63 3.37  65 3.37
  34  0.127  0.125  0.375-  17 2.82  26 2.82   2 2.82   9 2.82
  35  0.133  0.125  0.875-  18 2.82  25 2.82  10 2.93   1 2.93  33 3.37
  36  0.126  0.625  0.375-   4 2.82  11 2.82  19 2.83  28 2.83
  37  0.127  0.625  0.875-  20 2.82  27 2.82   3 2.82  12 2.82
  38  0.623  0.125  0.375-  13 2.82   6 2.82  21 2.82  30 2.82
  39  0.617  0.125  0.875-  14 2.82   5 2.82  22 2.93  29 2.93  33 3.37
  40  0.624  0.625  0.375-  23 2.82  32 2.82   8 2.83  15 2.83
  41  0.623  0.625  0.875-   7 2.82  16 2.82  31 2.82  24 2.82
  42  0.125  0.375  0.125-  19 2.82   9 2.84  25 2.84   3 2.84
  43  0.127  0.377  0.623-  10 2.79   4 2.84  26 2.84  20 2.84
  44  0.127  0.873  0.127-   1 2.79  11 2.84  17 2.84  27 2.84
  45  0.125  0.875  0.625-  28 2.82  18 2.84   2 2.84  12 2.84
  46  0.623  0.377  0.127-  29 2.79  13 2.84  23 2.84   7 2.84
  47  0.625  0.375  0.625-   8 2.82  14 2.84  24 2.84  30 2.84
  48  0.625  0.875  0.125-  15 2.82  21 2.84   5 2.84  31 2.84
  49  0.623  0.873  0.623-  22 2.79  32 2.84   6 2.84  16 2.84
  50  0.375  0.125  0.127-  17 2.82  13 2.82   5 2.82  25 2.82
  51  0.375  0.125  0.623-   6 2.82  26 2.82  18 2.82  14 2.82
  52  0.375  0.625  0.126-   7 2.82  27 2.82  19 2.83  15 2.83
  53  0.375  0.625  0.624-  16 2.82  20 2.82   8 2.83  28 2.83
  54  0.875  0.125  0.133-   9 2.82  21 2.82   1 2.93  29 2.93  33 3.37
  55  0.875  0.125  0.617-  30 2.82   2 2.82  22 2.93  10 2.93  33 3.37
  56  0.875  0.625  0.127-  11 2.82  23 2.82   3 2.82  31 2.82
  57  0.875  0.625  0.623-   4 2.82  32 2.82  12 2.82  24 2.82
  58  0.375  0.376  0.375-  26 2.82  13 2.82  19 2.83   8 2.83
  59  0.375  0.377  0.875-   7 2.82  20 2.82  14 2.82  25 2.82
  60  0.375  0.874  0.375-   6 2.82  17 2.82  15 2.83  28 2.83
  61  0.375  0.873  0.875-  16 2.82  27 2.82   5 2.82  18 2.82
  62  0.875  0.377  0.375-   4 2.82  23 2.82   9 2.82  30 2.82
  63  0.875  0.383  0.875-  24 2.82   3 2.82  10 2.93  29 2.93  33 3.37
  64  0.875  0.873  0.375-  11 2.82  32 2.82   2 2.82  21 2.82
  65  0.875  0.867  0.875-  12 2.82  31 2.82   1 2.93  22 2.93  33 3.37


IMPORTANT INFORMATION: All symmetrisations will be switched off!
NOSYMM: (Re-)initialisation of all symmetry stuff for point group C_1.



 KPOINTS: Automatically generated mesh            
  k-points in reciprocal lattice
Space group operators:
 irot       det(A)        alpha          n_x          n_y          n_z        tau_x        tau_y        tau_z
    1     1.000000     0.000000     1.000000     0.000000     0.000000     0.000000     0.000000     0.000000

 ----------------------------------------------------------------------------- 
|                                                                             |
|           W    W    AA    RRRRR   N    N  II  N    N   GGGG   !!!           |
|           W    W   A  A   R    R  NN   N  II  NN   N  G    G  !!!           |
|           W    W  A    A  R    R  N N  N  II  N N  N  G       !!!           |
|           W WW W  AAAAAA  RRRRR   N  N N  II  N  N N  G  GGG   !            |
|           WW  WW  A    A  R   R   N   NN  II  N   NN  G    G                |
|           W    W  A    A  R    R  N    N  II  N    N   GGGG   !!!           |
|                                                                             |
|      Your generating k-point grid is not commensurate to the symmetry       |
|      of the lattice.  This can cause   slow convergence with respect        |
|      to k-points for HF type calculations                                   |
|      suggested SOLUTIONS:                                                   |
|       ) if not already the case, use automatic k-point generation           |
|       ) shift your grid to Gamma (G) (e.g. required for hex or fcc lattice) |
|                                                                             |
 ----------------------------------------------------------------------------- 

 
 Subroutine IBZKPT_HF returns following result:
 ==============================================
 
 Found      8 k-points in 1st BZ
 the following      8 k-points will be used (e.g. in the exchange kernel)
 Following reciprocal coordinates:   # in IRBZ
  0.000000  0.000000  0.000000    0.12500000   1 t-inv F
  0.500000  0.000000  0.000000    0.12500000   2 t-inv F
  0.000000  0.500000  0.000000    0.12500000   3 t-inv F
  0.500000  0.500000  0.000000    0.12500000   4 t-inv F
  0.000000  0.000000  0.500000    0.12500000   5 t-inv F
  0.500000  0.000000  0.500000    0.12500000   6 t-inv F
  0.000000  0.500000  0.500000    0.12500000   7 t-inv F
  0.500000  0.500000  0.500000    0.12500000   8 t-inv F


--------------------------------------------------------------------------------------------------------




 Dimension of arrays:
   k-points           NKPTS =      8   k-points in BZ     NKDIM =      8   number of bands    NBANDS=    776
   number of dos      NEDOS =   2000   number of ions     NIONS =     65
   non local maximal  LDIM  =      6   non local SUM 2l+1 LMDIM =     18
   total plane-waves  NPLWV = 884736
   max r-space proj   IRMAX =      1   max aug-charges    IRDMAX= 183854
   dimension x,y,z NGX =    96 NGY =   96 NGZ =   96
   dimension x,y,z NGXF=   192 NGYF=  192 NGZF=  192
   support grid    NGXF=   384 NGYF=  384 NGZF=  384
   ions per type =              33  32
   NGX,Y,Z   is equivalent  to a cutoff of  12.20, 12.20, 12.20 a.u.
   NGXF,Y,Z  is equivalent  to a cutoff of  24.39, 24.39, 24.39 a.u.

 SYSTEM =  unknown system                          
 POSCAR =  Cd33 Te32                               

 Startparameter for this run:
   NWRITE =      2    write-flag & timer
   PREC   = accura    normal or accurate (medium, high low for compatibility)
   ISTART =      0    job   : 0-new  1-cont  2-samecut
   ICHARG =      1    charge: 1-file 2-atom 10-const
   ISPIN  =      1    spin polarized calculation?
   LNONCOLLINEAR =      T non collinear calculations
   LSORBIT =      T    spin-orbit coupling
   INIWAV =      1    electr: 0-lowe 1-rand  2-diag
   LASPH  =      T    aspherical Exc in radial PAW
   METAGGA=      F    non-selfconsistent MetaGGA calc.

 Electronic Relaxation 1
   ENCUT  =  450.0 eV  33.07 Ry    5.75 a.u.  22.64 22.64 22.64*2*pi/ulx,y,z
   ENINI  =  450.0     initial cutoff
   ENAUG  =  456.1 eV  augmentation charge cutoff
   NELM   =      6;   NELMIN=  2; NELMDL= -5     # of ELM steps 
   EDIFF  = 0.1E-05   stopping-criterion for ELM
   LREAL  =      F    real-space projection
   NLSPLINE    = F    spline interpolate recip. space projectors
   LCOMPAT=      F    compatible to vasp.4.4
   GGA_COMPAT  = T    GGA compatible to vasp.4.4-vasp.4.6
   LMAXPAW     = -100 max onsite density
   LMAXMIX     =    2 max onsite mixed and CHGCAR
   VOSKOWN=      0    Vosko Wilk Nusair interpolation
   ROPT   =    0.00000   0.00000
 Ionic relaxation
   EDIFFG = -.1E-01   stopping-criterion for IOM
   NSW    =      0    number of steps for IOM
   NBLOCK =      1;   KBLOCK =      1    inner block; outer block 
   IBRION =     -1    ionic relax: 0-MD 1-quasi-New 2-CG
   NFREE  =      0    steps in history (QN), initial steepest desc. (CG)
   ISIF   =      2    stress and relaxation
   IWAVPR =     10    prediction:  0-non 1-charg 2-wave 3-comb
   ISYM   =      0    0-nonsym 1-usesym 2-fastsym
   LCORR  =      T    Harris-Foulkes like correction to forces

   POTIM  = 0.5000    time-step for ionic-motion
   TEIN   =    0.0    initial temperature
   TEBEG  =    0.0;   TEEND  =   0.0 temperature during run
   SMASS  =  -3.00    Nose mass-parameter (am)
   estimated Nose-frequenzy (Omega)   =  0.10E-29 period in steps =****** mass=  -0.391E-26a.u.
   SCALEE = 1.0000    scale energy and forces
   NPACO  =    256;   APACO  = 16.0  distance and # of slots for P.C.
   PSTRESS=    0.0 pullay stress

  Mass of Ions in am
   POMASS = 112.41127.60
  Ionic Valenz
   ZVAL   =  12.00  6.00
  Atomic Wigner-Seitz radii
   RWIGS  =  -1.00 -1.00
  virtual crystal weights 
   VCA    =   1.00  1.00
   NELECT =     588.0000    total number of electrons
   NUPDOWN=      -1.0000    fix difference up-down

 DOS related values:
   EMIN   =  10.00;   EMAX   =-10.00  energy-range for DOS
   EFERMI =   0.00
   ISMEAR =     0;   SIGMA  =   0.05  broadening in eV -4-tet -1-fermi 0-gaus

 Electronic relaxation 2 (details)
   IALGO  =     58    algorithm
   LDIAG  =      T    sub-space diagonalisation (order eigenvalues)
   LSUBROT=      F    optimize rotation matrix (better conditioning)
   TURBO    =      0    0=normal 1=particle mesh
   IRESTART =      0    0=no restart 2=restart with 2 vectors
   NREBOOT  =      0    no. of reboots
   NMIN     =      0    reboot dimension
   EREF     =   0.00    reference energy to select bands
   IMIX   =      4    mixing-type and parameters
     AMIX     =   0.40;   BMIX     =  1.00
     AMIX_MAG =   1.60;   BMIX_MAG =  1.00
     AMIN     =   0.10
     WC   =   100.;   INIMIX=   1;  MIXPRE=   1;  MAXMIX= -45

 Intra band minimization:
   WEIMIN = 0.0000     energy-eigenvalue tresh-hold
   EBREAK =  0.32E-09  absolut break condition
   DEPER  =   0.30     relativ break condition  

   TIME   =   0.40     timestep for ELM

  volume/ion in A,a.u.               =      34.48       232.69
  Fermi-wavevector in a.u.,A,eV,Ry     =   1.048017  1.980464 14.943809  1.098339
  Thomas-Fermi vector in A             =   2.182921

 Write flags
   LWAVE        =      T    write WAVECAR
   LDOWNSAMPLE  =      F    k-point downsampling of WAVECAR
   LCHARG       =      T    write CHGCAR
   LVTOT        =      F    write LOCPOT, total local potential
   LVHAR        =      T    write LOCPOT, Hartree potential only
   LELF         =      F    write electronic localiz. function (ELF)
   LORBIT       =     11    0 simple, 1 ext, 2 COOP (PROOUT), +10 PAW based schemes


 Dipole corrections
   LMONO  =      F    monopole corrections only (constant potential shift)
   LDIPOL =      F    correct potential (dipole corrections)
   IDIPOL =      0    1-x, 2-y, 3-z, 4-all directions 
   EPSILON=  1.0000000 bulk dielectric constant

 Exchange correlation treatment:
   GGA     =    --    GGA type
   LEXCH   =     8    internal setting for exchange type
   VOSKOWN=      0    Vosko Wilk Nusair interpolation
   EXXOEP  =     0    0=HF, 1=EXX-LHF (local Hartree Fock) 2=EXX OEP
   LHFCALC =     T    Hartree Fock is set to
   LSYMGRAD=     F    symmetrize gradient (conserves proper symmetry)
   PRECFOCK=fast      Normal, Fast or Accurate (Low or Medium for compatibility)
   LRHFCALC=     F    long range Hartree Fock
   LRSCOR  =     F    long range correlation only (use DFT for short range part)
   LTHOMAS =     F    Thomas Fermi screening in HF
   LMODELHF=     F    short range full HF, long range fraction AEXX
   ENCUT4O =  -1.0   cutoff for four orbital integrals eV
   LMAXFOCK=     4    L truncation for augmentation on plane wave grid
   LMAXFOCKAE=  -1    L truncation for all-electron charge restoration on plane wave grid
   NMAXFOCKAE=   1    number of basis functions for all-electron charge restoration
   LFOCKAEDFT=     F  apply the AE augmentation even for DFT
   NKREDX  =     1    reduce k-point grid by
   NKREDY  =     1    reduce k-point grid by
   NKREDZ  =     1    reduce k-point grid by
   SHIFTRED=     F    shift reduced grid of Gamma
   HFKIDENT=     F    idential grid for each k-point
   ODDONLY =     F    use only odd q-grid points
   EVENONLY=     F    use only even q-grid points
   HFALPHA =   -1.0000 decay constant for conv. correction
   MCALPHA =    0.0000 extent of test-charge in conv. correction in multipole expansion
   AEXX    =    0.2500 exact exchange contribution
   HFSCREEN=    0.2000 screening length (either q_TF or 0.3 A-1)
   HFSCREENC=   0.2000 screening length for correlation (either q_TF or 0.3 A-1)
   HFRCUT  =    0.0000 spherical cutoff for potential kernel
   ALDAX   =    0.7500 LDA exchange part
   AGGAX   =    0.7500 GGA exchange part
   ALDAC   =    1.0000 LDA correlation
   AGGAC   =    1.0000 GGA correlation
   ENCUTFOCK=  -1.0 apply spherical cutoff to Coloumb kernel
   NBANDSGWLOW=     1    first orbital included in HF term
   NBLOCK_FOCK=    64    blocking factor in FOCK_ACC
 Linear response parameters
   LEPSILON=     F    determine dielectric tensor
   LRPA    =     F    only Hartree local field effects (RPA)
   LNABLA  =     F    use nabla operator in PAW spheres
   LVEL    =     F    velocity operator in full k-point grid
   LINTERFAST=   F  fast interpolation
   KINTER  =     0    interpolate to denser k-point grid
   CSHIFT  =0.1000    complex shift for real part using Kramers Kronig
   OMEGAMAX=  -1.0    maximum frequency
   DEG_THRESHOLD= 0.2000000E-02 threshold for treating states as degnerate
   RTIME   =   -0.100 relaxation time in fs
  (WPLASMAI=    0.000 imaginary part of plasma frequency in eV, 0.658/RTIME)
   DFIELD  = 0.0000000 0.0000000 0.0000000 field for delta impulse in time

 Orbital magnetization related:
   ORBITALMAG=     F  switch on orbital magnetization
   LCHIMAG   =     F  perturbation theory with respect to B field
   DQ        =  0.001000  dq finite difference perturbation B field
   LLRAUG    =     F  two centre corrections for induced B field



--------------------------------------------------------------------------------------------------------


 Static calculation
 charge density and potential will be updated during run
 non collinear spin polarized calculation
 Conjugate gradient for all bands (Freysoldt, et al. PRB 79, 241103 (2009))
 preconditioned conjugated gradient                                        
 perform sub-space diagonalisation
    before iterative eigenvector-optimisation
 modified Broyden-mixing scheme, WC =      100.0
 initial mixing is a Kerker type mixing with AMIX =  0.4000 and BMIX =      1.0000
 Hartree-type preconditioning will be used
 using additional bands          482
 reciprocal scheme for non local part
 use partial core corrections
 no Harris-corrections to forces 
 use gradient corrections 
 use of overlap-Matrix (Vanderbilt PP)
 Gauss-broadening in eV      SIGMA  =   0.05


--------------------------------------------------------------------------------------------------------


  energy-cutoff  :      450.00
  volume of cell :     2241.29
      direct lattice vectors                 reciprocal lattice vectors
    13.086768000  0.000000000  0.000000000     0.076413061  0.000000000  0.000000000
     0.000000000 13.086768000  0.000000000     0.000000000  0.076413061  0.000000000
     0.000000000  0.000000000 13.086768000     0.000000000  0.000000000  0.076413061

  length of vectors
    13.086768000 13.086768000 13.086768000     0.076413061  0.076413061  0.076413061



 k-points in units of 2pi/SCALE and weight: Automatically generated mesh            
   0.00000000  0.00000000  0.00000000       0.125
   0.03820653  0.00000000  0.00000000       0.125
   0.00000000  0.03820653  0.00000000       0.125
   0.03820653  0.03820653  0.00000000       0.125
   0.00000000  0.00000000  0.03820653       0.125
   0.03820653  0.00000000  0.03820653       0.125
   0.00000000  0.03820653  0.03820653       0.125
   0.03820653  0.03820653  0.03820653       0.125

 k-points in reciprocal lattice and weights: Automatically generated mesh            
   0.00000000  0.00000000  0.00000000       0.125
   0.50000000  0.00000000  0.00000000       0.125
   0.00000000  0.50000000  0.00000000       0.125
   0.50000000  0.50000000  0.00000000       0.125
   0.00000000  0.00000000  0.50000000       0.125
   0.50000000  0.00000000  0.50000000       0.125
   0.00000000  0.50000000  0.50000000       0.125
   0.50000000  0.50000000  0.50000000       0.125

 position of ions in fractional coordinates (direct lattice) 
   0.00448500  0.99551500  0.00448500
   0.00124700  0.99875300  0.49695900
   0.00124700  0.50304100  0.00124700
   0.99962500  0.50121800  0.49878200
   0.49695900  0.99875300  0.00124700
   0.49878100  0.00037500  0.49878100
   0.49878100  0.50121900  0.99962500
   0.50052800  0.49947200  0.50052800
   0.00124700  0.25124700  0.25304000
   0.00448600  0.25448500  0.74551500
   0.99962500  0.74878200  0.25121800
   0.00124700  0.74695900  0.74875300
   0.49878200  0.24962500  0.25121900
   0.49696000  0.25124700  0.74875300
   0.50052800  0.75052800  0.24947200
   0.49878100  0.74878100  0.75037500
   0.25121900  0.00037500  0.25121900
   0.25304000  0.99875300  0.74875300
   0.24947200  0.49947200  0.24947200
   0.25121900  0.50121900  0.75037500
   0.74875300  0.99875300  0.25304000
   0.74551400  0.99551500  0.74551500
   0.75037500  0.50121900  0.25121900
   0.74875300  0.50304000  0.74875300
   0.25304000  0.25124700  0.00124700
   0.25121900  0.24962500  0.49878100
   0.25121900  0.74878100  0.99962500
   0.24947200  0.75052800  0.50052800
   0.74551400  0.25448500  0.00448500
   0.74875300  0.25124700  0.49696000
   0.74875300  0.74695900  0.00124700
   0.75037500  0.74878200  0.49878200
   0.87500000  0.12500000  0.87500000
   0.12665600  0.12500000  0.37500000
   0.13277900  0.12500000  0.87500000
   0.12589200  0.62500000  0.37500000
   0.12665600  0.62500000  0.87500000
   0.62334400  0.12500000  0.37500000
   0.61722100  0.12500000  0.87500000
   0.62410800  0.62500000  0.37500000
   0.62334400  0.62500000  0.87500000
   0.12484800  0.37484800  0.12484800
   0.12748800  0.37748800  0.62251200
   0.12748800  0.87251200  0.12748800
   0.12484800  0.87515200  0.62515200
   0.62251200  0.37748800  0.12748800
   0.62515200  0.37484800  0.62515200
   0.62515200  0.87515200  0.12484800
   0.62251200  0.87251200  0.62251200
   0.37500000  0.12500000  0.12665600
   0.37500000  0.12500000  0.62334400
   0.37500000  0.62500000  0.12589200
   0.37500000  0.62500000  0.62410800
   0.87500000  0.12500000  0.13277900
   0.87500000  0.12500000  0.61722100
   0.87500000  0.62500000  0.12665600
   0.87500000  0.62500000  0.62334400
   0.37500000  0.37589200  0.37500000
   0.37500000  0.37665600  0.87500000
   0.37500000  0.87410800  0.37500000
   0.37500000  0.87334400  0.87500000
   0.87500000  0.37665600  0.37500000
   0.87500000  0.38277900  0.87500000
   0.87500000  0.87334400  0.37500000
   0.87500000  0.86722100  0.87500000

 position of ions in cartesian coordinates  (Angst):
   0.05869415 13.02807385  0.05869415
   0.01631920 13.07044880  6.50358714
   0.01631920  6.58318086  0.01631920
  13.08186046  6.55932368  6.52744432
   6.50358714 13.07044880  0.01631920
   6.52743123  0.00490754  6.52743123
   6.52743123  6.55933677 13.08186046
   6.55029381  6.53647419  6.55029381
   0.01631920  3.28801120  3.31147577
   0.05870724  3.33038615  9.75638185
  13.08186046  9.79913632  3.28763168
   0.01631920  9.77527914  9.79875680
   6.52744432  3.26678446  3.28764477
   6.50360023  3.28801120  9.79875680
   6.55029381  9.82198581  3.26478219
   6.52743123  9.79912323  9.81998354
   3.28764477  0.00490754  3.28764477
   3.31147577 13.07044880  9.79875680
   3.26478219  6.53647419  3.26478219
   3.28764477  6.55933677  9.81998354
   9.79875680 13.07044880  3.31147577
   9.75636876 13.02807385  9.75638185
   9.81998354  6.55933677  3.28764477
   9.79875680  6.58316777  9.79875680
   3.31147577  3.28801120  0.01631920
   3.28764477  3.26678446  6.52743123
   3.28764477  9.79912323 13.08186046
   3.26478219  9.82198581  6.55029381
   9.75636876  3.33038615  0.05869415
   9.79875680  3.28801120  6.50360023
   9.79875680  9.77527914  0.01631920
   9.81998354  9.79913632  6.52744432
  11.45092200  1.63584600 11.45092200
   1.65751769  1.63584600  4.90753800
   1.73764797  1.63584600 11.45092200
   1.64751940  8.17923000  4.90753800
   1.65751769  8.17923000 11.45092200
   8.15755831  1.63584600  4.90753800
   8.07742803  1.63584600 11.45092200
   8.16755660  8.17923000  4.90753800
   8.15755831  8.17923000 11.45092200
   1.63385681  4.90554881  1.63385681
   1.66840588  4.94009788  8.14667012
   1.66840588 11.41836212  1.66840588
   1.63385681 11.45291119  8.18121919
   8.14667012  4.94009788  1.66840588
   8.18121919  4.90554881  8.18121919
   8.18121919 11.45291119  1.63385681
   8.14667012 11.41836212  8.14667012
   4.90753800  1.63584600  1.65751769
   4.90753800  1.63584600  8.15755831
   4.90753800  8.17923000  1.64751940
   4.90753800  8.17923000  8.16755660
  11.45092200  1.63584600  1.73764797
  11.45092200  1.63584600  8.07742803
  11.45092200  8.17923000  1.65751769
  11.45092200  8.17923000  8.15755831
   4.90753800  4.91921140  4.90753800
   4.90753800  4.92920969 11.45092200
   4.90753800 11.43924860  4.90753800
   4.90753800 11.42925031 11.45092200
  11.45092200  4.92920969  4.90753800
  11.45092200  5.00933997 11.45092200
  11.45092200 11.42925031  4.90753800
  11.45092200 11.34912003 11.45092200

 Euler angles ALPHA=     0.0000000  BETA=     0.0000000

 transformation matrix from SAXIS to cartesian coordinates
 ---------------------------------------------------------
     1.0000000 m_x    -0.0000000 m_y     0.0000000 m_z
     0.0000000 m_x     1.0000000 m_y     0.0000000 m_z
    -0.0000000 m_x     0.0000000 m_y     1.0000000 m_z

 transformation matrix from cartesian coordinates to SAXIS
 ---------------------------------------------------------
     1.0000000 m_x     0.0000000 m_y    -0.0000000 m_z
    -0.0000000 m_x     1.0000000 m_y     0.0000000 m_z
     0.0000000 m_x     0.0000000 m_y     1.0000000 m_z




--------------------------------------------------------------------------------------------------------


 k-point  1 :   0.0000 0.0000 0.0000  plane waves:   97002
 k-point  2 :   0.5000 0.0000 0.0000  plane waves:   97356
 k-point  3 :   0.0000 0.5000 0.0000  plane waves:   97356
 k-point  4 :   0.5000 0.5000 0.0000  plane waves:   96960
 k-point  5 :   0.0000 0.0000 0.5000  plane waves:   97356
 k-point  6 :   0.5000 0.0000 0.5000  plane waves:   96960
 k-point  7 :   0.0000 0.5000 0.5000  plane waves:   96960
 k-point  8 :   0.5000 0.5000 0.5000  plane waves:   96832

 maximum and minimum number of plane-waves per node :      3116     2976

 maximum number of plane-waves:     97356
 maximum index in each direction: 
   IXMAX=   22   IYMAX=   22   IZMAX=   22
   IXMIN=  -23   IYMIN=  -23   IZMIN=  -23


 parallel 3D FFT for wavefunctions:
    minimum data exchange during FFTs selected (reduces bandwidth)
 parallel 3D FFT for charge:
    minimum data exchange during FFTs selected (reduces bandwidth)


 FFT grid for exact exchange (Hartree Fock) 
  NGX = 48; NGY = 48; NGZ = 48


 Radii for the augmentation spheres in the non-local exchange
 for species   1 augmentation radius   1.444 (default was   1.070)
       energy cutoff for augmentation   1800.0
 for species   2 augmentation radius   1.606 (default was   1.190)
       energy cutoff for augmentation   1800.0

 real space projection operators:
  total allocation   :       9375.20 KBytes
  max/ min on nodes  :        432.62        141.21

 Maximum index for augmentation-charges in exchange           97
  SETUP_FOCK is finished

 total amount of memory used by VASP MPI-rank0   179183. kBytes
=======================================================================

   base      :      30000. kBytes
   nonl-proj :       5136. kBytes
   fftplans  :      11326. kBytes
   grid      :      12386. kBytes
   one-center:        186. kBytes
   HF        :        129. kBytes
   nonlr-proj:       1424. kBytes
   wavefun   :     118596. kBytes

     INWAV:  cpu time    0.0001: real time    0.0006
 Broyden mixing: mesh for mixing (old mesh)
   NGX = 45   NGY = 45   NGZ = 45
  (NGX  =192   NGY  =192   NGZ  =192)
  gives a total of  91125 points

 initial charge density was supplied:
 charge density of overlapping atoms calculated
 number of electron     588.0000000 magnetization      65.0000000     65.0000000     65.0000000
 keeping initial charge density in first step


--------------------------------------------------------------------------------------------------------


 Maximum index for augmentation-charges         3093 (set IRDMAX)


--------------------------------------------------------------------------------------------------------


 First call to EWALD:  gamma=   0.135
 Maximum number of real-space cells 3x 3x 3
 Maximum number of reciprocal cells 3x 3x 3

    FEWALD:  cpu time    0.0061: real time    0.0061


--------------------------------------- Iteration      1(   1)  ---------------------------------------


    POTLOK:  cpu time    0.2894: real time    0.3346
    SETDIJ:  cpu time    1.7705: real time    1.7709
    TRIAL :  cpu time   14.5335: real time   15.3977
    CORREC:  cpu time    0.0028: real time    0.0028
    --------------------------------------------
      LOOP:  cpu time   16.7376: real time   17.6475

 eigenvalue-minimisations  : 12424
 total energy-change (2. order) : 0.4615607E+04  (-0.2533141E+05)
 number of electron     588.0000000 magnetization      65.0000000     65.0000000     65.0000000
 augmentation part      588.0000000 magnetization      65.0000000     65.0000000     65.0000000

 Free energy of the ion-electron system (eV)
  ---------------------------------------------------
  alpha Z        PSCENC =      1642.45118531
  Ewald energy   TEWEN  =    -33940.17512420
  -Hartree energ DENC   =    -17077.89199325
  -exchange      EXHF   =         0.00000000
  -V(xc)+E(xc)   XCENC  =      -617.56595420
  PAW double counting   =     46020.13618676   -43994.38451653
  entropy T*S    EENTRO =        -0.02937023
  eigenvalues    EBANDS =      2833.64074127
  atomic energy  EATOM  =     49749.42546356
  ---------------------------------------------------
  free energy    TOTEN  =      4615.60661850 eV

  energy without entropy =     4615.63598873  energy(sigma->0) =     4615.62130361
  exchange ACFDT corr.  =         0.00000000  see jH, gK, PRB 81, 115126


--------------------------------------------------------------------------------------------------------




--------------------------------------- Iteration      1(   2)  ---------------------------------------


    TRIAL :  cpu time   15.3247: real time   15.3591
    CORREC:  cpu time    0.0028: real time    0.0028
    --------------------------------------------
      LOOP:  cpu time   15.3377: real time   15.3938

 eigenvalue-minimisations  : 13536
 total energy-change (2. order) :-0.3433758E+04  (-0.3271502E+04)
 number of electron     588.0000000 magnetization      65.0000000     65.0000000     65.0000000
 augmentation part      588.0000000 magnetization      65.0000000     65.0000000     65.0000000

 Free energy of the ion-electron system (eV)
  ---------------------------------------------------
  alpha Z        PSCENC =      1642.45118531
  Ewald energy   TEWEN  =    -33940.17512420
  -Hartree energ DENC   =    -17077.89199325
  -exchange      EXHF   =         0.00000000
  -V(xc)+E(xc)   XCENC  =      -617.56595420
  PAW double counting   =     46020.13618676   -43994.38451653
  entropy T*S    EENTRO =        -0.01070254
  eigenvalues    EBANDS =      -600.13615771
  atomic energy  EATOM  =     49749.42546356
  ---------------------------------------------------
  free energy    TOTEN  =      1181.84838721 eV

  energy without entropy =     1181.85908975  energy(sigma->0) =     1181.85373848
  exchange ACFDT corr.  =         0.00000000  see jH, gK, PRB 81, 115126


--------------------------------------------------------------------------------------------------------




--------------------------------------- Iteration      1(   3)  ---------------------------------------


    TRIAL :  cpu time   15.8789: real time   15.8908
    CORREC:  cpu time    0.0033: real time    0.0033
    --------------------------------------------
      LOOP:  cpu time   15.8921: real time   15.9253

 eigenvalue-minimisations  : 14200
 total energy-change (2. order) :-0.2346437E+03  (-0.2318685E+03)
 number of electron     588.0000000 magnetization      65.0000000     65.0000000     65.0000000
 augmentation part      588.0000000 magnetization      65.0000000     65.0000000     65.0000000

 Free energy of the ion-electron system (eV)
  ---------------------------------------------------
  alpha Z        PSCENC =      1642.45118531
  Ewald energy   TEWEN  =    -33940.17512420
  -Hartree energ DENC   =    -17077.89199325
  -exchange      EXHF   =         0.00000000
  -V(xc)+E(xc)   XCENC  =      -617.56595420
  PAW double counting   =     46020.13618676   -43994.38451653
  entropy T*S    EENTRO =        -0.01253654
  eigenvalues    EBANDS =      -834.77801229
  atomic energy  EATOM  =     49749.42546356
  ---------------------------------------------------
  free energy    TOTEN  =       947.20469863 eV

  energy without entropy =      947.21723516  energy(sigma->0) =      947.21096690
  exchange ACFDT corr.  =         0.00000000  see jH, gK, PRB 81, 115126


--------------------------------------------------------------------------------------------------------




--------------------------------------- Iteration      1(   4)  ---------------------------------------


    TRIAL :  cpu time   16.0844: real time   16.0931
    CORREC:  cpu time    0.0030: real time    0.0030
    --------------------------------------------
      LOOP:  cpu time   16.1008: real time   16.1284

 eigenvalue-minimisations  : 14368
 total energy-change (2. order) :-0.5507668E+01  (-0.5492019E+01)
 number of electron     588.0000000 magnetization      65.0000000     65.0000000     65.0000000
 augmentation part      588.0000000 magnetization      65.0000000     65.0000000     65.0000000

 Free energy of the ion-electron system (eV)
  ---------------------------------------------------
  alpha Z        PSCENC =      1642.45118531
  Ewald energy   TEWEN  =    -33940.17512420
  -Hartree energ DENC   =    -17077.89199325
  -exchange      EXHF   =         0.00000000
  -V(xc)+E(xc)   XCENC  =      -617.56595420
  PAW double counting   =     46020.13618676   -43994.38451653
  entropy T*S    EENTRO =        -0.01278113
  eigenvalues    EBANDS =      -840.28543584
  atomic energy  EATOM  =     49749.42546356
  ---------------------------------------------------
  free energy    TOTEN  =       941.69703049 eV

  energy without entropy =      941.70981162  energy(sigma->0) =      941.70342105
  exchange ACFDT corr.  =         0.00000000  see jH, gK, PRB 81, 115126


--------------------------------------------------------------------------------------------------------




--------------------------------------- Iteration      1(   5)  ---------------------------------------


    TRIAL :  cpu time   16.7794: real time   16.7864
    CORREC:  cpu time    0.0034: real time    0.0034
    CHARGE:  cpu time    0.9175: real time    0.9183
    --------------------------------------------
      LOOP:  cpu time   17.7125: real time   17.7398

 eigenvalue-minimisations  : 15248
 total energy-change (2. order) :-0.1068601E+00  (-0.1066630E+00)
 number of electron     588.0000006 magnetization       0.6809504      0.6809391      0.6809448
 augmentation part      145.5204623 magnetization       0.5824193      0.5823679      0.5823643

 Free energy of the ion-electron system (eV)
  ---------------------------------------------------
  alpha Z        PSCENC =      1642.45118531
  Ewald energy   TEWEN  =    -33940.17512420
  -Hartree energ DENC   =    -17077.89199325
  -exchange      EXHF   =         0.00000000
  -V(xc)+E(xc)   XCENC  =      -617.56595420
  PAW double counting   =     46020.13618676   -43994.38451653
  entropy T*S    EENTRO =        -0.01278113
  eigenvalues    EBANDS =      -840.39229595
  atomic energy  EATOM  =     49749.42546356
  ---------------------------------------------------
  free energy    TOTEN  =       941.59017039 eV

  energy without entropy =      941.60295151  energy(sigma->0) =      941.59656095
  exchange ACFDT corr.  =         0.00000000  see jH, gK, PRB 81, 115126


--------------------------------------------------------------------------------------------------------




--------------------------------------- Iteration      1(   6)  ---------------------------------------


    POTLOK:  cpu time    0.2830: real time    0.2830
    SETDIJ:  cpu time    1.7581: real time    1.7584
    TRIAL :  cpu time 1187.0467: real time 1187.6637
    CORREC:  cpu time 1182.7687: real time 1183.2722
    EDDIAG:  cpu time 1187.5211: real time 1188.0106
    CHARGE:  cpu time    0.9119: real time    0.9124
    --------------------------------------------
      LOOP:  cpu time 3560.3601: real time 3561.9955

 eigenvalue-minimisations  :     0
 total energy-change (2. order) :-0.1091941E+04  ( 0.3349542E-10)
 number of electron     588.0000006 magnetization      -1.0387371     -1.1351026     -0.9543602
 augmentation part      148.9396674 magnetization      -0.0024291     -0.0370779     -0.0628268

 Free energy of the ion-electron system (eV)
  ---------------------------------------------------
  alpha Z        PSCENC =      1642.45118531
  Ewald energy   TEWEN  =    -33940.17512420
  -Hartree energ DENC   =    -15675.28454994
  -exchange      EXHF   = ******************
  -V(xc)+E(xc)   XCENC  =      -655.55198350
  PAW double counting   =    120160.65711706  -118072.27438399
  entropy T*S    EENTRO =        -0.00664060
  eigenvalues    EBANDS =     -4466.43752488
  atomic energy  EATOM  =     49749.42546356
  ---------------------------------------------------
  free energy    TOTEN  =      -150.35117802 eV

  energy without entropy =     -150.34453742  energy(sigma->0) =     -150.34785772
  exchange ACFDT corr.  =        -0.01688181  see jH, gK, PRB 81, 115126


--------------------------------------------------------------------------------------------------------


  average scaling for gradient   0.9503


 average (electrostatic) potential at core
  the test charge radii are     1.0698  1.1897
  (the norm of the test charge is              1.0000)
       1 -31.0025       2 -31.3429       3 -31.3423       4 -31.5562       5 -31.5495
       6 -31.7433       7 -31.7540       8 -31.8284       9 -31.3451      10 -31.0340
      11 -31.5554      12 -31.3346      13 -31.7451      14 -31.5525      15 -31.8294
      16 -31.7511      17 -31.6616      18 -31.4623      19 -31.7424      20 -31.6675
      21 -31.5202      22 -31.2170      23 -31.7375      24 -31.5124      25 -31.4688
      26 -31.6605      27 -31.6689      28 -31.7418      29 -31.2226      30 -31.5154
      31 -31.5203      32 -31.7336      33 -29.6162      34 -88.0899      35 -87.5508
      36 -88.2146      37 -88.0698      38 -88.2111      39 -87.7193      40 -88.3733
      41 -88.2169      42 -87.9613      43 -88.1031      44 -88.1051      45 -87.9546
      46 -88.2693      47 -88.1189      48 -88.1200      49 -88.2646      50 -88.1746
      51 -88.1764      52 -88.3063      53 -88.3039      54 -87.6071      55 -87.5971
      56 -88.1857      57 -88.1435      58 -88.2984      59 -88.1978      60 -88.2969
      61 -88.1927      62 -88.1537      63 -87.5970      64 -88.1835      65 -87.5952



 E-fermi :   4.7247     XC(G=0):  -7.3038     alpha+bet : -7.2837


 k-point     1 :       0.0000    0.0000    0.0000
  band No.  band energies     occupation 
      1     -10.6806      1.00000
      2     -10.6440      1.00000
      3     -10.4031      1.00000
      4     -10.3928      1.00000
      5     -10.3796      1.00000
      6     -10.3740      1.00000
      7     -10.3694      1.00000
      8     -10.3555      1.00000
      9     -10.3524      1.00000
     10     -10.3427      1.00000
     11     -10.3314      1.00000
     12     -10.3204      1.00000
     13     -10.2978      1.00000
     14     -10.2884      1.00000
     15     -10.2831      1.00000
     16     -10.2670      1.00000
     17     -10.2631      1.00000
     18     -10.2614      1.00000
     19     -10.2499      1.00000
     20     -10.2393      1.00000
     21     -10.2309      1.00000
     22     -10.2290      1.00000
     23     -10.2269      1.00000
     24     -10.2141      1.00000
     25     -10.2122      1.00000
     26     -10.2003      1.00000
     27     -10.1962      1.00000
     28     -10.1736      1.00000
     29     -10.1706      1.00000
     30     -10.1692      1.00000
     31     -10.1578      1.00000
     32     -10.1561      1.00000
     33     -10.1485      1.00000
     34     -10.1375      1.00000
     35     -10.1307      1.00000
     36     -10.1210      1.00000
     37     -10.1186      1.00000
     38     -10.1144      1.00000
     39     -10.0916      1.00000
     40     -10.0857      1.00000
     41     -10.0734      1.00000
     42     -10.0635      1.00000
     43     -10.0588      1.00000
     44     -10.0556      1.00000
     45     -10.0380      1.00000
     46     -10.0106      1.00000
     47      -9.9926      1.00000
     48      -9.9689      1.00000
     49      -9.9492      1.00000
     50      -9.8436      1.00000
     51      -9.7888      1.00000
     52      -9.7599      1.00000
     53      -9.7184      1.00000
     54      -9.6840      1.00000
     55      -9.6764      1.00000
     56      -9.6509      1.00000
     57      -9.6421      1.00000
     58      -9.6374      1.00000
     59      -9.6339      1.00000
     60      -9.5924      1.00000
     61      -9.5790      1.00000
     62      -9.4677      1.00000
     63      -7.5771      1.00000
     64      -7.5748      1.00000
     65      -7.5574      1.00000
     66      -7.5555      1.00000
     67      -7.5530      1.00000
     68      -7.5520      1.00000
     69      -7.5327      1.00000
     70      -7.5310      1.00000
     71      -7.5216      1.00000
     72      -7.5173      1.00000
     73      -7.5056      1.00000
     74      -7.5024      1.00000
     75      -7.4957      1.00000
     76      -7.4943      1.00000
     77      -7.4868      1.00000
     78      -7.4857      1.00000
     79      -7.4818      1.00000
     80      -7.4799      1.00000
     81      -7.4698      1.00000
     82      -7.4689      1.00000
     83      -7.4671      1.00000
     84      -7.4660      1.00000
     85      -7.4608      1.00000
     86      -7.4572      1.00000
     87      -7.4515      1.00000
     88      -7.4505      1.00000
     89      -7.4476      1.00000
     90      -7.4459      1.00000
     91      -7.4382      1.00000
     92      -7.4369      1.00000
     93      -7.4221      1.00000
     94      -7.4204      1.00000
     95      -7.4202      1.00000
     96      -7.4173      1.00000
     97      -7.4050      1.00000
     98      -7.4040      1.00000
     99      -7.3948      1.00000
    100      -7.3921      1.00000
    101      -7.3911      1.00000
    102      -7.3902      1.00000
    103      -7.3703      1.00000
    104      -7.3691      1.00000
    105      -7.3596      1.00000
    106      -7.3587      1.00000
    107      -7.3531      1.00000
    108      -7.3515      1.00000
    109      -7.3383      1.00000
    110      -7.3372      1.00000
    111      -7.3328      1.00000
    112      -7.3312      1.00000
    113      -7.3144      1.00000
    114      -7.3131      1.00000
    115      -7.3020      1.00000
    116      -7.3014      1.00000
    117      -7.2922      1.00000
    118      -7.2906      1.00000
    119      -7.2850      1.00000
    120      -7.2835      1.00000
    121      -7.2738      1.00000
    122      -7.2729      1.00000
    123      -7.2617      1.00000
    124      -7.2596      1.00000
    125      -7.2530      1.00000
    126      -7.2510      1.00000
    127      -7.2482      1.00000
    128      -7.2469      1.00000
    129      -7.2386      1.00000
    130      -7.2357      1.00000
    131      -7.2333      1.00000
    132      -7.2310      1.00000
    133      -7.2259      1.00000
    134      -7.2251      1.00000
    135      -7.2191      1.00000
    136      -7.2182      1.00000
    137      -7.2060      1.00000
    138      -7.2052      1.00000
    139      -7.1840      1.00000
    140      -7.1832      1.00000
    141      -7.1813      1.00000
    142      -7.1795      1.00000
    143      -7.1700      1.00000
    144      -7.1686      1.00000
    145      -7.1559      1.00000
    146      -7.1549      1.00000
    147      -7.1480      1.00000
    148      -7.1458      1.00000
    149      -7.1280      1.00000
    150      -7.1266      1.00000
    151      -7.1122      1.00000
    152      -7.1090      1.00000
    153      -7.0995      1.00000
    154      -7.0994      1.00000
    155      -7.0872      1.00000
    156      -7.0838      1.00000
    157      -7.0716      1.00000
    158      -7.0646      1.00000
    159      -7.0568      1.00000
    160      -7.0541      1.00000
    161      -7.0535      1.00000
    162      -7.0505      1.00000
    163      -7.0371      1.00000
    164      -7.0350      1.00000
    165      -7.0279      1.00000
    166      -7.0231      1.00000
    167      -6.9905      1.00000
    168      -6.9862      1.00000
    169      -6.9719      1.00000
    170      -6.9712      1.00000
    171      -6.9572      1.00000
    172      -6.9553      1.00000
    173      -6.9530      1.00000
    174      -6.9508      1.00000
    175      -6.9423      1.00000
    176      -6.9408      1.00000
    177      -6.9362      1.00000
    178      -6.9312      1.00000
    179      -6.9211      1.00000
    180      -6.9196      1.00000
    181      -6.9031      1.00000
    182      -6.9028      1.00000
    183      -6.8937      1.00000
    184      -6.8911      1.00000
    185      -6.8887      1.00000
    186      -6.8860      1.00000
    187      -6.8660      1.00000
    188      -6.8650      1.00000
    189      -6.8617      1.00000
    190      -6.8604      1.00000
    191      -6.8568      1.00000
    192      -6.8554      1.00000
    193      -6.8455      1.00000
    194      -6.8454      1.00000
    195      -6.8438      1.00000
    196      -6.8421      1.00000
    197      -6.8218      1.00000
    198      -6.8204      1.00000
    199      -6.8095      1.00000
    200      -6.8092      1.00000
    201      -6.8068      1.00000
    202      -6.8058      1.00000
    203      -6.8005      1.00000
    204      -6.7988      1.00000
    205      -6.7972      1.00000
    206      -6.7968      1.00000
    207      -6.7853      1.00000
    208      -6.7841      1.00000
    209      -6.7808      1.00000
    210      -6.7799      1.00000
    211      -6.7782      1.00000
    212      -6.7768      1.00000
    213      -6.7714      1.00000
    214      -6.7698      1.00000
    215      -6.7675      1.00000
    216      -6.7642      1.00000
    217      -6.7631      1.00000
    218      -6.7622      1.00000
    219      -6.7597      1.00000
    220      -6.7548      1.00000
    221      -6.7513      1.00000
    222      -6.7488      1.00000
    223      -6.7423      1.00000
    224      -6.7408      1.00000
    225      -6.7333      1.00000
    226      -6.7327      1.00000
    227      -6.7309      1.00000
    228      -6.7284      1.00000
    229      -6.7258      1.00000
    230      -6.7248      1.00000
    231      -6.7224      1.00000
    232      -6.7214      1.00000
    233      -6.7191      1.00000
    234      -6.7179      1.00000
    235      -6.7106      1.00000
    236      -6.7096      1.00000
    237      -6.7013      1.00000
    238      -6.7007      1.00000
    239      -6.7002      1.00000
    240      -6.6982      1.00000
    241      -6.6948      1.00000
    242      -6.6921      1.00000
    243      -6.6847      1.00000
    244      -6.6841      1.00000
    245      -6.6831      1.00000
    246      -6.6826      1.00000
    247      -6.6753      1.00000
    248      -6.6738      1.00000
    249      -6.6713      1.00000
    250      -6.6707      1.00000
    251      -6.6620      1.00000
    252      -6.6590      1.00000
    253      -6.6497      1.00000
    254      -6.6489      1.00000
    255      -6.6422      1.00000
    256      -6.6410      1.00000
    257      -6.6401      1.00000
    258      -6.6391      1.00000
    259      -6.6235      1.00000
    260      -6.6220      1.00000
    261      -6.6143      1.00000
    262      -6.6139      1.00000
    263      -6.6065      1.00000
    264      -6.6061      1.00000
    265      -6.6053      1.00000
    266      -6.6038      1.00000
    267      -6.5980      1.00000
    268      -6.5975      1.00000
    269      -6.5929      1.00000
    270      -6.5914      1.00000
    271      -6.5811      1.00000
    272      -6.5798      1.00000
    273      -6.5713      1.00000
    274      -6.5706      1.00000
    275      -6.5662      1.00000
    276      -6.5638      1.00000
    277      -6.5574      1.00000
    278      -6.5552      1.00000
    279      -6.5525      1.00000
    280      -6.5478      1.00000
    281      -6.5421      1.00000
    282      -6.5407      1.00000
    283      -6.5347      1.00000
    284      -6.5327      1.00000
    285      -6.5297      1.00000
    286      -6.5268      1.00000
    287      -6.5246      1.00000
    288      -6.5236      1.00000
    289      -6.5209      1.00000
    290      -6.5202      1.00000
    291      -6.5118      1.00000
    292      -6.5106      1.00000
    293      -6.5051      1.00000
    294      -6.5046      1.00000
    295      -6.5003      1.00000
    296      -6.4993      1.00000
    297      -6.4960      1.00000
    298      -6.4953      1.00000
    299      -6.4828      1.00000
    300      -6.4810      1.00000
    301      -6.4779      1.00000
    302      -6.4760      1.00000
    303      -6.4754      1.00000
    304      -6.4738      1.00000
    305      -6.4572      1.00000
    306      -6.4558      1.00000
    307      -6.4548      1.00000
    308      -6.4520      1.00000
    309      -6.4426      1.00000
    310      -6.4417      1.00000
    311      -6.4387      1.00000
    312      -6.4318      1.00000
    313      -6.4258      1.00000
    314      -6.4229      1.00000
    315      -6.4157      1.00000
    316      -6.4114      1.00000
    317      -6.3993      1.00000
    318      -6.3974      1.00000
    319      -6.3879      1.00000
    320      -6.3863      1.00000
    321      -6.3716      1.00000
    322      -6.3705      1.00000
    323      -6.3691      1.00000
    324      -6.3675      1.00000
    325      -6.3615      1.00000
    326      -6.3503      1.00000
    327      -6.3475      1.00000
    328      -6.3433      1.00000
    329      -6.3345      1.00000
    330      -6.3306      1.00000
    331      -6.3258      1.00000
    332      -6.3249      1.00000
    333      -6.3208      1.00000
    334      -6.3134      1.00000
    335      -6.3087      1.00000
    336      -6.3066      1.00000
    337      -6.3001      1.00000
    338      -6.2861      1.00000
    339      -6.2811      1.00000
    340      -6.2780      1.00000
    341      -6.2722      1.00000
    342      -6.2612      1.00000
    343      -6.2532      1.00000
    344      -6.2493      1.00000
    345      -6.2409      1.00000
    346      -6.2367      1.00000
    347      -6.2293      1.00000
    348      -6.2262      1.00000
    349      -6.2206      1.00000
    350      -6.2155      1.00000
    351      -6.1976      1.00000
    352      -6.1950      1.00000
    353      -6.1938      1.00000
    354      -6.1844      1.00000
    355      -6.1779      1.00000
    356      -6.1704      1.00000
    357      -6.1595      1.00000
    358      -6.1572      1.00000
    359      -6.1473      1.00000
    360      -6.1373      1.00000
    361      -6.1265      1.00000
    362      -6.1234      1.00000
    363      -6.1214      1.00000
    364      -6.1026      1.00000
    365      -6.0900      1.00000
    366      -6.0845      1.00000
    367      -6.0710      1.00000
    368      -6.0652      1.00000
    369      -6.0467      1.00000
    370      -6.0400      1.00000
    371      -6.0342      1.00000
    372      -6.0106      1.00000
    373      -5.9924      1.00000
    374      -5.9881      1.00000
    375      -5.9718      1.00000
    376      -5.9579      1.00000
    377      -5.9356      1.00000
    378      -5.9011      1.00000
    379      -5.8725      1.00000
    380      -5.8598      1.00000
    381      -5.8396      1.00000
    382      -5.7637      1.00000
    383      -5.2783      1.00000
    384      -5.2756      1.00000
    385      -5.2679      1.00000
    386      -5.2557      1.00000
    387      -4.6747      1.00000
    388      -4.6675      1.00000
    389      -4.6634      1.00000
    390      -4.6591      1.00000
    391      -4.6504      1.00000
    392      -4.6464      1.00000
    393      -3.1904      1.00000
    394      -3.1855      1.00000
    395      -3.0730      1.00000
    396      -3.0703      1.00000
    397      -3.0672      1.00000
    398      -3.0619      1.00000
    399      -3.0583      1.00000
    400      -3.0557      1.00000
    401      -3.0125      1.00000
    402      -3.0083      1.00000
    403      -2.9770      1.00000
    404      -2.9706      1.00000
    405      -2.9315      1.00000
    406      -2.9263      1.00000
    407      -2.8987      1.00000
    408      -2.8965      1.00000
    409      -2.7935      1.00000
    410      -2.7875      1.00000
    411      -2.7771      1.00000
    412      -2.7745      1.00000
    413      -2.6129      1.00000
    414      -2.6117      1.00000
    415      -2.5937      1.00000
    416      -2.5914      1.00000
    417      -2.5372      1.00000
    418      -2.5340      1.00000
    419      -2.4867      1.00000
    420      -2.4767      1.00000
    421      -2.3818      1.00000
    422      -2.3812      1.00000
    423      -2.3745      1.00000
    424      -2.3725      1.00000
    425      -2.3704      1.00000
    426      -2.3660      1.00000
    427      -2.2812      1.00000
    428      -2.2791      1.00000
    429      -2.2633      1.00000
    430      -2.2600      1.00000
    431      -2.2339      1.00000
    432      -2.2293      1.00000
    433      -2.1671      1.00000
    434      -2.1649      1.00000
    435      -2.1608      1.00000
    436      -2.1588      1.00000
    437      -2.1196      1.00000
    438      -2.1187      1.00000
    439      -2.0994      1.00000
    440      -2.0949      1.00000
    441      -2.0337      1.00000
    442      -2.0311      1.00000
    443      -1.3216      1.00000
    444      -1.3055      1.00000
    445      -1.2302      1.00000
    446      -1.2265      1.00000
    447      -1.2122      1.00000
    448      -1.2097      1.00000
    449      -1.2050      1.00000
    450      -1.2028      1.00000
    451      -1.1530      1.00000
    452      -1.1474      1.00000
    453      -1.1440      1.00000
    454      -1.1405      1.00000
    455      -1.1319      1.00000
    456      -1.1280      1.00000
    457      -1.1232      1.00000
    458      -1.1190      1.00000
    459      -1.1090      1.00000
    460      -1.0943      1.00000
    461      -0.9462      1.00000
    462      -0.9158      1.00000
    463      -0.8594      1.00000
    464      -0.8564      1.00000
    465      -0.8502      1.00000
    466      -0.8450      1.00000
    467      -0.8382      1.00000
    468      -0.8375      1.00000
    469      -0.8031      1.00000
    470      -0.7961      1.00000
    471      -0.7903      1.00000
    472      -0.7854      1.00000
    473      -0.7735      1.00000
    474      -0.7668      1.00000
    475      -0.7601      1.00000
    476      -0.7530      1.00000
    477      -0.7346      1.00000
    478      -0.7246      1.00000
    479      -0.7190      1.00000
    480      -0.7165      1.00000
    481      -0.7136      1.00000
    482      -0.7097      1.00000
    483      -0.6995      1.00000
    484      -0.6944      1.00000
    485      -0.6873      1.00000
    486      -0.6821      1.00000
    487      -0.6724      1.00000
    488      -0.6681      1.00000
    489      -0.6650      1.00000
    490      -0.6623      1.00000
    491      -0.6117      1.00000
    492      -0.6024      1.00000
    493      -0.5764      1.00000
    494      -0.5673      1.00000
    495      -0.5649      1.00000
    496      -0.5593      1.00000
    497      -0.5355      1.00000
    498      -0.5335      1.00000
    499      -0.5175      1.00000
    500      -0.5156      1.00000
    501      -0.5070      1.00000
    502      -0.5028      1.00000
    503      -0.4584      1.00000
    504      -0.4551      1.00000
    505      -0.4400      1.00000
    506      -0.4355      1.00000
    507      -0.3846      1.00000
    508      -0.3791      1.00000
    509      -0.2384      1.00000
    510      -0.2266      1.00000
    511      -0.2243      1.00000
    512      -0.2135      1.00000
    513      -0.1739      1.00000
    514      -0.1661      1.00000
    515       0.2126      1.00000
    516       0.2179      1.00000
    517       0.2246      1.00000
    518       0.2284      1.00000
    519       0.2457      1.00000
    520       0.2476      1.00000
    521       0.2529      1.00000
    522       0.2578      1.00000
    523       0.2795      1.00000
    524       0.2828      1.00000
    525       0.2939      1.00000
    526       0.3017      1.00000
    527       0.4118      1.00000
    528       0.4209      1.00000
    529       0.4262      1.00000
    530       0.4317      1.00000
    531       0.4419      1.00000
    532       0.4477      1.00000
    533       0.4500      1.00000
    534       0.4602      1.00000
    535       0.5924      1.00000
    536       0.5969      1.00000
    537       0.6047      1.00000
    538       0.6067      1.00000
    539       0.6182      1.00000
    540       0.6236      1.00000
    541       0.6321      1.00000
    542       0.6362      1.00000
    543       0.6373      1.00000
    544       0.6439      1.00000
    545       0.6614      1.00000
    546       0.6750      1.00000
    547       0.6872      1.00000
    548       0.6983      1.00000
    549       0.7008      1.00000
    550       0.7053      1.00000
    551       0.7099      1.00000
    552       0.7145      1.00000
    553       0.7249      1.00000
    554       0.7394      1.00000
    555       0.7451      1.00000
    556       0.7504      1.00000
    557       0.7541      1.00000
    558       0.7580      1.00000
    559       0.7657      1.00000
    560       0.7732      1.00000
    561       0.7744      1.00000
    562       0.7885      1.00000
    563       0.7946      1.00000
    564       0.8028      1.00000
    565       0.8332      1.00000
    566       0.8376      1.00000
    567       0.8410      1.00000
    568       0.8512      1.00000
    569       0.8543      1.00000
    570       0.8633      1.00000
    571       0.9790      1.00000
    572       0.9957      1.00000
    573       1.0775      1.00000
    574       1.0815      1.00000
    575       1.0880      1.00000
    576       1.0932      1.00000
    577       1.1569      1.00000
    578       1.1662      1.00000
    579       1.1893      1.00000
    580       1.1982      1.00000
    581       1.8179      1.00000
    582       1.8370      1.00000
    583       1.8566      1.00000
    584       1.8722      1.00000
    585       2.8277      1.00000
    586       2.8320      1.00000
    587       3.7637      1.00000
    588      13.7657      1.00000
    589      14.1789      1.00000
    590       4.1789      0.00038
    591       4.1800      0.00023
    592       4.2071      0.00020
    593       4.2089      0.00018
    594       4.2149      0.00000
    595       4.2165      0.00000
    596       4.2353      0.00000
    597       4.9163      0.00000
    598       4.9278      0.00000
    599       4.9398      0.00000
    600       4.9483      0.00000
    601       5.1417      0.00000
    602       5.1582      0.00000
    603       5.1627      0.00000
    604       5.1717      0.00000
    605       5.2016      0.00000
    606       5.2422      0.00000
    607       5.2973      0.00000
    608       5.3079      0.00000
    609       5.3143      0.00000
    610       5.3222      0.00000
    611       5.3285      0.00000
    612       5.3561      0.00000
    613       5.3742      0.00000
    614       5.3945      0.00000
    615       5.4038      0.00000
    616       5.4112      0.00000
    617       5.4170      0.00000
    618       5.4320      0.00000
    619       5.4663      0.00000
    620       5.4720      0.00000
    621       5.4728      0.00000
    622       5.4808      0.00000
    623       5.4859      0.00000
    624       5.4874      0.00000
    625       5.4917      0.00000
    626       5.4960      0.00000
    627       5.5294      0.00000
    628       5.5328      0.00000
    629       5.5562      0.00000
    630       5.5577      0.00000
    631       5.5582      0.00000
    632       5.5629      0.00000
    633       5.5643      0.00000
    634       5.5673      0.00000
    635       5.5684      0.00000
    636       5.5823      0.00000
    637       5.5836      0.00000
    638       5.5854      0.00000
    639       5.5871      0.00000
    640       5.5893      0.00000
    641       5.5904      0.00000
    642       5.5918      0.00000
    643       5.5944      0.00000
    644       5.5949      0.00000
    645       5.5991      0.00000
    646       5.6071      0.00000
    647       5.6106      0.00000
    648       5.6171      0.00000
    649       5.6205      0.00000
    650       5.6210      0.00000
    651       5.6219      0.00000
    652       5.6287      0.00000
    653       5.6541      0.00000
    654       5.6586      0.00000
    655       6.3437      0.00000
    656       6.4195      0.00000
    657       6.5550      0.00000
    658       6.5966      0.00000
    659       6.6285      0.00000
    660       6.6585      0.00000
    661       6.7887      0.00000
    662       6.7897      0.00000
    663       6.8724      0.00000
    664       6.9179      0.00000
    665       6.9377      0.00000
    666       6.9646      0.00000
    667       6.9903      0.00000
    668       6.9970      0.00000
    669       7.0020      0.00000
    670       7.0063      0.00000
    671       7.0121      0.00000
    672       7.0192      0.00000
    673       7.0193      0.00000
    674       7.0750      0.00000
    675       7.0819      0.00000
    676       7.0871      0.00000
    677       7.0901      0.00000
    678       7.0928      0.00000
    679       7.1014      0.00000
    680       7.1663      0.00000
    681       7.1888      0.00000
    682       7.2036      0.00000
    683       7.2084      0.00000
    684       7.2154      0.00000
    685       7.2763      0.00000
    686       7.2784      0.00000
    687       7.3031      0.00000
    688       7.3151      0.00000
    689       7.3175      0.00000
    690       7.3211      0.00000
    691       7.3860      0.00000
    692       7.4168      0.00000
    693       7.4243      0.00000
    694       7.4286      0.00000
    695       7.4311      0.00000
    696       7.4580      0.00000
    697       7.4587      0.00000
    698       7.4745      0.00000
    699       7.4860      0.00000
    700       7.5031      0.00000
    701       7.5083      0.00000
    702       7.5653      0.00000
    703       7.5712      0.00000
    704       7.6100      0.00000
    705       7.6339      0.00000
    706       7.6497      0.00000
    707       7.6574      0.00000
    708       7.6694      0.00000
    709       7.6937      0.00000
    710       7.6991      0.00000
    711       7.7132      0.00000
    712       7.7179      0.00000
    713       7.7333      0.00000
    714       7.7420      0.00000
    715       7.7548      0.00000
    716       7.7575      0.00000
    717       7.7655      0.00000
    718       7.7666      0.00000
    719       7.7673      0.00000
    720       7.7838      0.00000
    721       7.7846      0.00000
    722       7.7880      0.00000
    723       7.7886      0.00000
    724       7.7899      0.00000
    725       7.7992      0.00000
    726       7.8203      0.00000
    727       7.8331      0.00000
    728       7.8371      0.00000
    729       7.8421      0.00000
    730       7.8436      0.00000
    731       7.8447      0.00000
    732       7.8464      0.00000
    733       7.8544      0.00000
    734       7.8587      0.00000
    735       7.8590      0.00000
    736       7.8728      0.00000
    737       7.8810      0.00000
    738       7.8942      0.00000
    739       7.9255      0.00000
    740       7.9460      0.00000
    741       7.9685      0.00000
    742       8.0270      0.00000
    743       8.0308      0.00000
    744       8.0429      0.00000
    745       8.0589      0.00000
    746       8.0926      0.00000
    747       8.1383      0.00000
    748       8.1542      0.00000
    749       8.1614      0.00000
    750       8.1655      0.00000
    751       8.1877      0.00000
    752       8.2181      0.00000
    753       8.2250      0.00000
    754       8.2308      0.00000
    755       8.2588      0.00000
    756       8.3025      0.00000
    757       8.3135      0.00000
    758       8.3185      0.00000
    759       8.3229      0.00000
    760       8.3272      0.00000
    761       8.3388      0.00000
    762       8.3524      0.00000
    763       8.3596      0.00000
    764       8.3642      0.00000
    765       8.3786      0.00000
    766       8.3863      0.00000
    767       8.3889      0.00000
    768       8.4356      0.00000
    769       8.4574      0.00000
    770       8.4659      0.00000
    771       8.5117      0.00000
    772       8.5160      0.00000
    773       8.5551      0.00000
    774       8.6335      0.00000
    775      79.6675      0.00000
    776     145.1774      0.00000

 k-point     2 :       0.5000    0.0000    0.0000
  band No.  band energies     occupation 
      1   **********      1.00000
      2   **********      1.00000
      3   **********      1.00000
      4   **********      1.00000
      5   **********      1.00000
      6   **********      1.00000
      7   **********      1.00000
      8   **********      1.00000
      9   **********      1.00000
     10   **********      1.00000
     11   **********      1.00000
     12   **********      1.00000
     13   **********      1.00000
     14   **********      1.00000
     15   **********      1.00000
     16   **********      1.00000
     17   **********      1.00000
     18   **********      1.00000
     19   **********      1.00000
     20   **********      1.00000
     21   **********      1.00000
     22   **********      1.00000
     23   **********      1.00000
     24   **********      1.00000
     25   **********      1.00000
     26   **********      1.00000
     27   **********      1.00000
     28   **********      1.00000
     29   **********      1.00000
     30   **********      1.00000
     31   **********      1.00000
     32   **********      1.00000
     33   **********      1.00000
     34   **********      1.00000
     35   **********      1.00000
     36   **********      1.00000
     37   **********      1.00000
     38   **********      1.00000
     39   **********      1.00000
     40   **********      1.00000
     41   **********      1.00000
     42   **********      1.00000
     43   **********      1.00000
     44   **********      1.00000
     45   **********      1.00000
     46   **********      1.00000
     47   **********      1.00000
     48   **********      1.00000
     49   **********      1.00000
     50   **********      1.00000
     51   **********      1.00000
     52   **********      1.00000
     53   **********      1.00000
     54   **********      1.00000
     55   **********      1.00000
     56   **********      1.00000
     57   **********      1.00000
     58   **********      1.00000
     59   **********      1.00000
     60   **********      1.00000
     61   **********      1.00000
     62   **********      1.00000
     63   **********      1.00000
     64   **********      1.00000
     65   **********      1.00000
     66   **********      1.00000
     67   **********      1.00000
     68   **********      1.00000
     69   **********      1.00000
     70   **********      1.00000
     71   **********      1.00000
     72   **********      1.00000
     73   **********      1.00000
     74   **********      1.00000
     75   **********      1.00000
     76   **********      1.00000
     77   **********      1.00000
     78   **********      1.00000
     79   **********      1.00000
     80   **********      1.00000
     81   **********      1.00000
     82   **********      1.00000
     83   **********      1.00000
     84   **********      1.00000
     85   **********      1.00000
     86   **********      1.00000
     87   **********      1.00000
     88   **********      1.00000
     89   **********      1.00000
     90   **********      1.00000
     91   **********      1.00000
     92   **********      1.00000
     93   **********      1.00000
     94   **********      1.00000
     95   **********      1.00000
     96   **********      1.00000
     97   **********      1.00000
     98   **********      1.00000
     99   **********      1.00000
    100   **********      1.00000
    101   **********      1.00000
    102   **********      1.00000
    103   **********      1.00000
    104   **********      1.00000
[...]
 l=   3
     0.0000000     0.0000000     0.0000000     0.0000000     0.0000000     0.0000000     0.0000000
     0.0000000     0.0000000     0.0000000     0.0000000     0.0000000     0.0000000     0.0000000
     0.0000000     0.0000000     0.0000000     0.0000000     0.0000000     0.0000000     0.0000000
     0.0000000     0.0000000     0.0000000     0.0000000     0.0000000     0.0000000     0.0000000
     0.0000000     0.0000000     0.0000000     0.0000000     0.0000000     0.0000000     0.0000000
     0.0000000     0.0000000     0.0000000     0.0000000     0.0000000     0.0000000     0.0000000
     0.0000000     0.0000000     0.0000000     0.0000000     0.0000000     0.0000000     0.0000000

 Ion:   61  E_soc:     -0.1759903
 l=   1
     0.0000000    -0.0291071    -0.0290828
    -0.0291071     0.0000000    -0.0292401
    -0.0290828    -0.0292401     0.0000000
 l=   2
     0.0000000    -0.0000477     0.0000000    -0.0000469    -0.0001394
    -0.0000477     0.0000000    -0.0001001    -0.0000644    -0.0000330
     0.0000000    -0.0001001     0.0000000    -0.0001083     0.0000000
    -0.0000469    -0.0000644    -0.0001083     0.0000000    -0.0000253
    -0.0001394    -0.0000330     0.0000000    -0.0000253     0.0000000
 l=   3
     0.0000000     0.0000000     0.0000000     0.0000000     0.0000000     0.0000000     0.0000000
     0.0000000     0.0000000     0.0000000     0.0000000     0.0000000     0.0000000     0.0000000
     0.0000000     0.0000000     0.0000000     0.0000000     0.0000000     0.0000000     0.0000000
     0.0000000     0.0000000     0.0000000     0.0000000     0.0000000     0.0000000     0.0000000
     0.0000000     0.0000000     0.0000000     0.0000000     0.0000000     0.0000000     0.0000000
     0.0000000     0.0000000     0.0000000     0.0000000     0.0000000     0.0000000     0.0000000
     0.0000000     0.0000000     0.0000000     0.0000000     0.0000000     0.0000000     0.0000000

 Ion:   62  E_soc:     -0.1779613
 l=   1
     0.0000000    -0.0296337    -0.0294161
    -0.0296337     0.0000000    -0.0293155
    -0.0294161    -0.0293155     0.0000000
 l=   2
     0.0000000    -0.0000569     0.0000000    -0.0000482    -0.0001372
    -0.0000569     0.0000000    -0.0001182    -0.0000639    -0.0000458
     0.0000000    -0.0001182     0.0000000    -0.0001149     0.0000000
    -0.0000482    -0.0000639    -0.0001149     0.0000000    -0.0000302
    -0.0001372    -0.0000458     0.0000000    -0.0000302     0.0000000
 l=   3
     0.0000000     0.0000000     0.0000000     0.0000000     0.0000000     0.0000000     0.0000000
     0.0000000     0.0000000     0.0000000     0.0000000     0.0000000     0.0000000     0.0000000
     0.0000000     0.0000000     0.0000000     0.0000000     0.0000000     0.0000000     0.0000000
     0.0000000     0.0000000     0.0000000     0.0000000     0.0000000     0.0000000     0.0000000
     0.0000000     0.0000000     0.0000000     0.0000000     0.0000000     0.0000000     0.0000000
     0.0000000     0.0000000     0.0000000     0.0000000     0.0000000     0.0000000     0.0000000
     0.0000000     0.0000000     0.0000000     0.0000000     0.0000000     0.0000000     0.0000000

 Ion:   63  E_soc:     -0.1753854
 l=   1
     0.0000000    -0.0286520    -0.0290070
    -0.0286520     0.0000000    -0.0294864
    -0.0290070    -0.0294864     0.0000000
 l=   2
     0.0000000    -0.0000465     0.0000000    -0.0000473    -0.0001242
    -0.0000465     0.0000000    -0.0000985    -0.0000544    -0.0000412
     0.0000000    -0.0000985     0.0000000    -0.0001055     0.0000000
    -0.0000473    -0.0000544    -0.0001055     0.0000000    -0.0000296
    -0.0001242    -0.0000412     0.0000000    -0.0000296     0.0000000
 l=   3
     0.0000000     0.0000000     0.0000000     0.0000000     0.0000000     0.0000000     0.0000000
     0.0000000     0.0000000     0.0000000     0.0000000     0.0000000     0.0000000     0.0000000
     0.0000000     0.0000000     0.0000000     0.0000000     0.0000000     0.0000000     0.0000000
     0.0000000     0.0000000     0.0000000     0.0000000     0.0000000     0.0000000     0.0000000
     0.0000000     0.0000000     0.0000000     0.0000000     0.0000000     0.0000000     0.0000000
     0.0000000     0.0000000     0.0000000     0.0000000     0.0000000     0.0000000     0.0000000
     0.0000000     0.0000000     0.0000000     0.0000000     0.0000000     0.0000000     0.0000000

 Ion:   64  E_soc:     -0.1746288
 l=   1
     0.0000000    -0.0288410    -0.0290291
    -0.0288410     0.0000000    -0.0288470
    -0.0290291    -0.0288470     0.0000000
 l=   2
     0.0000000    -0.0000640     0.0000000    -0.0000509    -0.0001385
    -0.0000640     0.0000000    -0.0001045    -0.0000639    -0.0000378
     0.0000000    -0.0001045     0.0000000    -0.0001113     0.0000000
    -0.0000509    -0.0000639    -0.0001113     0.0000000    -0.0000265
    -0.0001385    -0.0000378     0.0000000    -0.0000265     0.0000000
 l=   3
     0.0000000     0.0000000     0.0000000     0.0000000     0.0000000     0.0000000     0.0000000
     0.0000000     0.0000000     0.0000000     0.0000000     0.0000000     0.0000000     0.0000000
     0.0000000     0.0000000     0.0000000     0.0000000     0.0000000     0.0000000     0.0000000
     0.0000000     0.0000000     0.0000000     0.0000000     0.0000000     0.0000000     0.0000000
     0.0000000     0.0000000     0.0000000     0.0000000     0.0000000     0.0000000     0.0000000
     0.0000000     0.0000000     0.0000000     0.0000000     0.0000000     0.0000000     0.0000000
     0.0000000     0.0000000     0.0000000     0.0000000     0.0000000     0.0000000     0.0000000

 Ion:   65  E_soc:     -0.1772257
 l=   1
     0.0000000    -0.0297395    -0.0292452
    -0.0297395     0.0000000    -0.0290800
    -0.0292452    -0.0290800     0.0000000
 l=   2
     0.0000000    -0.0000597     0.0000000    -0.0000433    -0.0001266
    -0.0000597     0.0000000    -0.0000983    -0.0000540    -0.0000327
     0.0000000    -0.0000983     0.0000000    -0.0001040     0.0000000
    -0.0000433    -0.0000540    -0.0001040     0.0000000    -0.0000297
    -0.0001266    -0.0000327     0.0000000    -0.0000297     0.0000000
 l=   3
     0.0000000     0.0000000     0.0000000     0.0000000     0.0000000     0.0000000     0.0000000
     0.0000000     0.0000000     0.0000000     0.0000000     0.0000000     0.0000000     0.0000000
     0.0000000     0.0000000     0.0000000     0.0000000     0.0000000     0.0000000     0.0000000
     0.0000000     0.0000000     0.0000000     0.0000000     0.0000000     0.0000000     0.0000000
     0.0000000     0.0000000     0.0000000     0.0000000     0.0000000     0.0000000     0.0000000
     0.0000000     0.0000000     0.0000000     0.0000000     0.0000000     0.0000000     0.0000000
     0.0000000     0.0000000     0.0000000     0.0000000     0.0000000     0.0000000     0.0000000



 total charge     

# of ion       s       p       d       tot
------------------------------------------
    1        0.482   0.353   9.133   9.968
    2        0.485   0.361   9.159  10.006
    3        0.489   0.362   9.160  10.011
    4        0.487   0.363   9.177  10.027
    5        0.490   0.361   9.156  10.008
    6        0.487   0.363   9.157  10.006
    7        0.489   0.361   9.169  10.019
    8        0.488   0.357   9.179  10.025
    9        0.489   0.362   9.178  10.029
   10        0.482   0.352   9.114   9.947
   11        0.486   0.362   9.144   9.993
   12        0.490   0.362   9.157  10.008
   13        0.489   0.362   9.151  10.002
   14        0.490   0.361   9.178  10.028
   15        0.487   0.357   9.171  10.015
   16        0.489   0.361   9.165  10.015
   17        0.491   0.363   9.156  10.009
   18        0.491   0.363   9.174  10.027
   19        0.488   0.360   9.193  10.041
   20        0.489   0.363   9.171  10.023
   21        0.489   0.359   9.162  10.010
   22        0.484   0.353   9.137   9.973
   23        0.488   0.360   9.161  10.009
   24        0.489   0.360   9.175  10.024
   25        0.489   0.363   9.170  10.022
   26        0.488   0.361   9.169  10.018
   27        0.488   0.361   9.169  10.017
   28        0.486   0.360   9.174  10.020
   29        0.482   0.353   9.141   9.975
   30        0.487   0.360   9.152  10.000
   31        0.489   0.360   9.154  10.003
   32        0.486   0.362   9.161  10.009
   33        0.725   0.262   9.128  10.115
   34        1.300   2.131   0.058   3.490
   35        1.314   2.124   0.057   3.495
   36        1.300   2.129   0.058   3.487
   37        1.297   2.132   0.058   3.488
   38        1.303   2.134   0.058   3.495
   39        1.308   2.123   0.057   3.488
   40        1.300   2.129   0.058   3.486
   41        1.304   2.133   0.058   3.495
   42        1.307   2.138   0.058   3.502
   43        1.305   2.131   0.058   3.493
   44        1.302   2.132   0.058   3.492
   45        1.302   2.131   0.058   3.492
   46        1.304   2.125   0.058   3.488
   47        1.294   2.134   0.056   3.484
   48        1.298   2.136   0.056   3.490
   49        1.303   2.127   0.058   3.488
   50        1.307   2.130   0.059   3.496
   51        1.309   2.132   0.059   3.500
   52        1.308   2.129   0.057   3.495
   53        1.308   2.133   0.058   3.499
   54        1.313   2.123   0.057   3.493
   55        1.312   2.120   0.057   3.490
   56        1.297   2.134   0.059   3.490
   57        1.298   2.135   0.059   3.492
   58        1.313   2.133   0.058   3.504
   59        1.307   2.134   0.059   3.500
   60        1.312   2.131   0.058   3.500
   61        1.303   2.132   0.059   3.494
   62        1.295   2.138   0.059   3.492
   63        1.316   2.123   0.057   3.496
   64        1.297   2.132   0.059   3.487
   65        1.314   2.125   0.058   3.496
--------------------------------------------------
tot         58.074  79.955 304.149 442.178



 magnetization (x)

# of ion       s       p       d       tot
------------------------------------------
    1       -0.004  -0.002  -0.020  -0.025
    2       -0.004   0.000  -0.015  -0.019
    3       -0.003   0.000  -0.017  -0.020
    4       -0.003   0.000  -0.032  -0.034
    5       -0.004  -0.001  -0.043  -0.049
    6       -0.005  -0.001  -0.026  -0.031
    7       -0.005  -0.001  -0.020  -0.026
    8       -0.002  -0.001  -0.022  -0.025
    9       -0.003  -0.000  -0.023  -0.026
   10       -0.004  -0.001  -0.028  -0.034
   11       -0.003  -0.000  -0.018  -0.021
   12       -0.003  -0.000  -0.017  -0.021
   13       -0.003  -0.000  -0.029  -0.032
   14       -0.005  -0.001  -0.016  -0.022
   15       -0.003  -0.001  -0.028  -0.033
   16       -0.005  -0.001  -0.023  -0.029
   17       -0.006  -0.001  -0.016  -0.023
   18       -0.003  -0.000  -0.016  -0.020
   19       -0.004  -0.000  -0.021  -0.025
   20       -0.004  -0.001  -0.022  -0.027
   21       -0.005  -0.001  -0.030  -0.036
   22       -0.006  -0.001  -0.031  -0.038
   23       -0.004  -0.000  -0.006  -0.011
   24       -0.003  -0.001  -0.035  -0.039
   25       -0.002  -0.001  -0.019  -0.022
   26       -0.004  -0.002  -0.025  -0.031
   27       -0.004  -0.002  -0.027  -0.033
   28       -0.003  -0.000  -0.019  -0.022
   29       -0.003  -0.002  -0.022  -0.027
   30       -0.004  -0.001  -0.014  -0.019
   31       -0.004  -0.001  -0.021  -0.025
   32       -0.004   0.000  -0.023  -0.026
   33        0.012  -0.001  -0.028  -0.018
   34       -0.006   0.020   0.001   0.015
   35       -0.002   0.023   0.001   0.022
   36       -0.005   0.021   0.001   0.017
   37       -0.008   0.019   0.001   0.012
   38       -0.004   0.024   0.001   0.021
   39       -0.004   0.023   0.001   0.019
   40       -0.003   0.023   0.001   0.022
   41       -0.004   0.021   0.001   0.018
   42       -0.002   0.023   0.002   0.022
   43        0.000   0.024   0.001   0.026
   44       -0.002   0.021   0.001   0.020
   45       -0.004   0.022   0.002   0.019
   46       -0.004   0.021   0.001   0.018
   47       -0.008   0.024   0.001   0.016
   48       -0.007   0.019   0.001   0.013
   49       -0.003   0.025   0.001   0.023
   50       -0.002   0.020   0.001   0.020
   51       -0.002   0.019   0.001   0.018
   52       -0.001   0.021   0.001   0.021
   53       -0.001   0.017   0.001   0.017
   54       -0.003   0.024   0.001   0.022
   55       -0.003   0.020   0.001   0.018
   56       -0.004   0.025   0.001   0.022
   57       -0.005   0.022   0.001   0.018
   58        0.001   0.021   0.001   0.024
   59       -0.002   0.018   0.001   0.017
   60        0.000   0.018   0.001   0.020
   61       -0.005   0.020   0.001   0.016
   62       -0.005   0.023   0.001   0.019
   63       -0.004   0.023   0.001   0.020
   64       -0.006   0.022   0.001   0.017
   65       -0.004   0.021   0.001   0.018
--------------------------------------------------
tot         -0.223   0.659  -0.715  -0.279



 magnetization (y)

# of ion       s       p       d       tot
------------------------------------------
    1       -0.005  -0.002  -0.011  -0.018
    2       -0.005  -0.001  -0.029  -0.034
    3       -0.003   0.000  -0.029  -0.032
    4       -0.004  -0.000  -0.026  -0.031
    5       -0.003  -0.001  -0.019  -0.023
    6       -0.003   0.000  -0.037  -0.039
    7       -0.003   0.000  -0.024  -0.027
    8       -0.003  -0.002  -0.026  -0.032
    9       -0.003  -0.001  -0.025  -0.028
   10       -0.005  -0.002  -0.018  -0.024
   11       -0.003  -0.001  -0.012  -0.017
   12       -0.003  -0.000  -0.028  -0.031
   13       -0.004  -0.001  -0.033  -0.037
   14       -0.005  -0.001  -0.029  -0.034
   15       -0.004  -0.001  -0.026  -0.031
   16       -0.004  -0.001  -0.020  -0.026
   17       -0.004  -0.001  -0.021  -0.026
   18       -0.004  -0.000  -0.029  -0.034
   19       -0.005  -0.000  -0.027  -0.032
   20       -0.005  -0.001  -0.014  -0.019
   21       -0.004  -0.001  -0.024  -0.029
   22       -0.005  -0.001  -0.025  -0.031
   23       -0.004  -0.001  -0.024  -0.029
   24       -0.004  -0.001  -0.025  -0.030
   25       -0.003  -0.001  -0.030  -0.034
   26       -0.002  -0.001  -0.014  -0.018
   27       -0.004  -0.001  -0.039  -0.043
   28       -0.003  -0.001  -0.031  -0.034
   29       -0.003  -0.001  -0.033  -0.037
   30       -0.004  -0.001  -0.012  -0.017
   31       -0.002  -0.001  -0.030  -0.033
   32       -0.003  -0.000  -0.009  -0.012
   33        0.012  -0.002  -0.033  -0.022
   34       -0.005   0.019   0.001   0.015
   35       -0.003   0.021   0.001   0.019
   36       -0.004   0.020   0.001   0.017
   37       -0.005   0.019   0.001   0.015
   38       -0.006   0.026   0.001   0.022
   39       -0.005   0.022   0.001   0.018
   40       -0.006   0.022   0.001   0.018
   41       -0.004   0.022   0.001   0.019
   42       -0.001   0.018   0.001   0.019
   43       -0.003   0.023   0.001   0.022
   44        0.000   0.021   0.001   0.022
   45       -0.004   0.020   0.002   0.018
   46       -0.003   0.025   0.001   0.023
   47       -0.007   0.019   0.001   0.013
   48       -0.005   0.019   0.001   0.014
   49       -0.004   0.022   0.001   0.020
   50       -0.002   0.019   0.001   0.019
   51       -0.000   0.020   0.001   0.021
   52       -0.002   0.016   0.001   0.016
   53       -0.003   0.020   0.001   0.018
   54       -0.005   0.022   0.001   0.018
   55       -0.003   0.018   0.001   0.016
   56       -0.007   0.020   0.001   0.015
   57       -0.005   0.022   0.001   0.018
   58        0.000   0.019   0.001   0.020
   59       -0.004   0.026   0.001   0.023
   60        0.001   0.021   0.002   0.023
   61       -0.004   0.022   0.001   0.019
   62       -0.005   0.020   0.001   0.017
   63       -0.002   0.022   0.001   0.021
   64       -0.005   0.020   0.001   0.017
   65       -0.003   0.020   0.001   0.018
--------------------------------------------------
tot         -0.216   0.637  -0.772  -0.352



 magnetization (z)

# of ion       s       p       d       tot
------------------------------------------
    1       -0.003  -0.001  -0.015  -0.018
    2       -0.004   0.001  -0.020  -0.023
    3       -0.003  -0.000  -0.021  -0.024
    4       -0.003   0.001  -0.028  -0.030
    5       -0.003  -0.001  -0.033  -0.038
    6       -0.004  -0.001  -0.018  -0.022
    7       -0.002  -0.000  -0.028  -0.030
    8       -0.005  -0.001  -0.028  -0.033
    9       -0.004   0.001  -0.023  -0.026
   10       -0.005  -0.002  -0.017  -0.024
   11       -0.002  -0.000  -0.037  -0.039
   12       -0.004   0.001  -0.017  -0.020
   13       -0.002   0.000  -0.038  -0.040
   14       -0.004  -0.001  -0.020  -0.025
   15       -0.003  -0.001  -0.027  -0.032
   16       -0.004  -0.001  -0.028  -0.033
   17       -0.005  -0.002  -0.025  -0.031
   18       -0.005  -0.001  -0.032  -0.038
   19       -0.004  -0.001  -0.032  -0.037
   20       -0.003  -0.001  -0.021  -0.025
   21       -0.003  -0.001  -0.029  -0.033
   22       -0.006  -0.001  -0.009  -0.016
   23       -0.006  -0.000  -0.023  -0.029
   24       -0.005  -0.001  -0.028  -0.034
   25       -0.003  -0.001  -0.026  -0.030
   26       -0.003  -0.002  -0.030  -0.035
   27       -0.003  -0.002  -0.033  -0.039
   28       -0.002  -0.000  -0.030  -0.033
   29       -0.004  -0.000  -0.028  -0.032
   30       -0.004  -0.001  -0.016  -0.021
   31       -0.003  -0.000  -0.035  -0.039
   32       -0.003   0.000  -0.022  -0.025
   33        0.013  -0.001  -0.023  -0.012
   34       -0.005   0.022   0.001   0.018
   35       -0.002   0.020   0.001   0.020
   36       -0.004   0.025   0.001   0.022
   37       -0.010   0.022   0.001   0.014
   38       -0.005   0.025   0.002   0.021
   39       -0.006   0.027   0.002   0.023
   40       -0.004   0.021   0.001   0.018
   41       -0.003   0.024   0.001   0.022
   42       -0.001   0.020   0.002   0.020
   43       -0.001   0.023   0.001   0.024
   44       -0.004   0.022   0.001   0.020
   45       -0.005   0.021   0.002   0.018
   46       -0.003   0.029   0.001   0.027
   47       -0.008   0.018   0.001   0.011
   48       -0.005   0.025   0.001   0.021
   49       -0.001   0.022   0.001   0.023
   50       -0.001   0.020   0.001   0.020
   51       -0.001   0.024   0.001   0.023
   52       -0.002   0.020   0.001   0.019
   53       -0.001   0.024   0.001   0.024
   54       -0.002   0.024   0.001   0.023
   55       -0.002   0.021   0.001   0.019
   56       -0.005   0.018   0.001   0.014
   57       -0.004   0.024   0.001   0.022
   58        0.001   0.019   0.001   0.021
   59       -0.002   0.026   0.001   0.025
   60       -0.001   0.014   0.001   0.014
   61       -0.005   0.019   0.001   0.015
   62       -0.008   0.020   0.002   0.014
   63       -0.002   0.021   0.001   0.020
   64       -0.004   0.022   0.001   0.019
   65       -0.002   0.020   0.001   0.020
--------------------------------------------------
tot         -0.209   0.683  -0.802  -0.328


 total amount of memory used by VASP MPI-rank0   188075. kBytes
=======================================================================

   base      :      30000. kBytes
   nonl-proj :       5136. kBytes
   fftplans  :      11326. kBytes
   grid      :      12386. kBytes
   one-center:        186. kBytes
   HF        :        129. kBytes
   nonlr-proj:      10316. kBytes
   wavefun   :     118596. kBytes

  
  
 General timing and accounting informations for this job:
 ========================================================
  
                  Total CPU time used (sec):     8375.975
                            User time (sec):     8359.293
                          System time (sec):       16.681
                         Elapsed time (sec):     8389.758
  
                   Maximum memory used (kb):      645476.
                   Average memory used (kb):           0.
  
                          Minor page faults:       157663
                          Major page faults:           10
                 Voluntary context switches:         7788
