 vasp.5.4.4.18Apr17-6-g9f103f2a35 (build Oct  1 2021 12:09:31) complex           
 executed on        HPECrayEX-GNU date 2022.02.13  16:29:42
 running on 1024 total cores
 distrk:  each k-point on  512 cores,    2 groups
 distr:  one band on NCORES_PER_BAND=  32 cores,   16 groups


--------------------------------------------------------------------------------------------------------


 INCAR:
 POTCAR:    PAW_PBE Cd 06Sep2000                  
 POTCAR:    PAW_PBE Te 08Apr2002                  

 ----------------------------------------------------------------------------- 
|                                                                             |
|           W    W    AA    RRRRR   N    N  II  N    N   GGGG   !!!           |
|           W    W   A  A   R    R  NN   N  II  NN   N  G    G  !!!           |
|           W    W  A    A  R    R  N N  N  II  N N  N  G       !!!           |
|           W WW W  AAAAAA  RRRRR   N  N N  II  N  N N  G  GGG   !            |
|           WW  WW  A    A  R   R   N   NN  II  N   NN  G    G                |
|           W    W  A    A  R    R  N    N  II  N    N   GGGG   !!!           |
|                                                                             |
|      You have enabled k-point parallelism (KPAR>1).                         |
|      This developmental code was originally  written by Paul Kent at ORNL,  |
|      and carefully double checked in Vienna.                                |
|      GW as well as linear response parallelism added by Martijn Marsman     |
|      and Georg Kresse.                                                      |
|      Carefully verify results versus KPAR=1.                                |
|      Report problems to Paul Kent and Vienna.                               |
|                                                                             |
 ----------------------------------------------------------------------------- 

 POTCAR:    PAW_PBE Cd 06Sep2000                  
   VRHFIN =Cd : s2 d10                                                          
   LEXCH  = PE                                                                  
   EATOM  =  1293.1815 eV,   95.0462 Ry                                         
                                                                                
   TITEL  = PAW_PBE Cd 06Sep2000                                                
   LULTRA =        F    use ultrasoft PP ?                                      
   IUNSCR =        1    unscreen: 0-lin 1-nonlin 2-no                           
   RPACOR =    2.000    partial core radius                                     
   POMASS =  112.411; ZVAL   =   12.000    mass and valenz                      
   RCORE  =    2.300    outmost cutoff radius                                   
   RWIGS  =    2.980; RWIGS  =    1.577    wigner-seitz radius (au A)           
   ENMAX  =  274.336; ENMIN  =  205.752 eV                                      
   RCLOC  =    2.054    cutoff for local pot                                    
   LCOR   =        T    correct aug charges                                     
   LPAW   =        T    paw PP                                                  
   EAUG   =  456.106                                                            
   DEXC   =    0.000                                                            
   RMAX   =    2.358    core radius for proj-oper                               
   RAUG   =    1.300    factor for augmentation sphere                          
   RDEP   =    2.450    radius for radial grids                                 
   RDEPT  =    1.955    core radius for aug-charge                              
                                                                                
   Atomic configuration                                                         
   12 entries                                                                   
     n  l   j            E        occ.                                          
     1  0  0.50    -26519.7817   2.0000                                         
     2  0  0.50     -3936.9612   2.0000                                         
     2  1  1.50     -3532.2230   6.0000                                         
     3  0  0.50      -733.7908   2.0000                                         
     3  1  1.50      -601.0792   6.0000                                         
     3  2  2.50      -393.5307  10.0000                                         
     4  0  0.50      -105.8977   2.0000                                         
     4  1  1.50       -66.9488   6.0000                                         
     4  2  2.50       -11.7331  10.0000                                         
     5  0  0.50        -5.6592   2.0000                                         
     5  1  0.50        -1.3606   0.0000                                         
     4  3  2.50        -1.3606   0.0000                                         
   Description                                                                  
     l       E           TYP  RCUT    TYP  RCUT                                 
     2    -11.7331479     23  2.300                                             
     2    -13.0937305     23  2.300                                             
     0     -5.6591502     23  2.300                                             
     0     -1.5561433     23  2.300                                             
     1     -2.7211652     23  2.300                                             
     1      8.3548275     23  2.300                                             
  local pseudopotential read in
  partial core-charges read in
  partial kinetic energy density read in
  atomic valenz-charges read in
  non local Contribution for L=           2  read in
    real space projection operators read in
  non local Contribution for L=           2  read in
    real space projection operators read in
  non local Contribution for L=           0  read in
    real space projection operators read in
  non local Contribution for L=           0  read in
    real space projection operators read in
  non local Contribution for L=           1  read in
    real space projection operators read in
  non local Contribution for L=           1  read in
    real space projection operators read in
    PAW grid and wavefunctions read in

   number of l-projection  operators is LMAX  =           6
   number of lm-projection operators is LMMAX =          18

 POTCAR:    PAW_PBE Te 08Apr2002                  
   VRHFIN =Te: s2p4                                                             
   LEXCH  = PE                                                                  
   EATOM  =   223.2721 eV,   16.4100 Ry                                         
                                                                                
   TITEL  = PAW_PBE Te 08Apr2002                                                
   LULTRA =        F    use ultrasoft PP ?                                      
   IUNSCR =        1    unscreen: 0-lin 1-nonlin 2-no                           
   RPACOR =    2.200    partial core radius                                     
   POMASS =  127.600; ZVAL   =    6.000    mass and valenz                      
   RCORE  =    2.300    outmost cutoff radius                                   
   RWIGS  =    2.900; RWIGS  =    1.535    wigner-seitz radius (au A)           
   ENMAX  =  174.982; ENMIN  =  131.236 eV                                      
   ICORE  =        3    local potential                                         
   LCOR   =        T    correct aug charges                                     
   LPAW   =        T    paw PP                                                  
   EAUG   =  368.792                                                            
   DEXC   =    0.000                                                            
   RMAX   =    2.345    core radius for proj-oper                               
   RAUG   =    1.300    factor for augmentation sphere                          
   RDEP   =    2.397    radius for radial grids                                 
   RDEPT  =    2.174    core radius for aug-charge                              
                                                                                
   Atomic configuration                                                         
   13 entries                                                                   
     n  l   j            E        occ.                                          
     1  0  0.50    -31621.2075   2.0000                                         
     2  0  0.50     -4848.7941   2.0000                                         
     2  1  1.50     -4352.1960   6.0000                                         
     3  0  0.50      -964.9612   2.0000                                         
     3  1  1.50      -803.6179   6.0000                                         
     3  2  2.50      -559.8710  10.0000                                         
     4  0  0.50      -164.3522   2.0000                                         
     4  1  1.50      -114.3756   6.0000                                         
     4  2  2.50       -41.6483  10.0000                                         
     5  0  0.50       -15.1072   2.0000                                         
     5  1  0.50        -5.9526   4.0000                                         
     5  2  1.50        -5.4423   0.0000                                         
     4  3  2.50        -5.4423   0.0000                                         
   Description                                                                  
     l       E           TYP  RCUT    TYP  RCUT                                 
     0    -15.1072389     23  2.300                                             
     0    -16.4678215     23  2.300                                             
     1     -5.9526306     23  2.300                                             
     1     -2.4873968     23  2.300                                             
     2     -5.4423304     23  2.300                                             
     3     -1.3605826     23  2.300                                             
  local pseudopotential read in
  partial core-charges read in
  partial kinetic energy density read in
  atomic valenz-charges read in
  non local Contribution for L=           0  read in
    real space projection operators read in
  non local Contribution for L=           0  read in
    real space projection operators read in
  non local Contribution for L=           1  read in
    real space projection operators read in
  non local Contribution for L=           1  read in
    real space projection operators read in
  non local Contribution for L=           2  read in
    real space projection operators read in
    PAW grid and wavefunctions read in

   number of l-projection  operators is LMAX  =           5
   number of lm-projection operators is LMMAX =          13


 ----------------------------------------------------------------------------- 
|                                                                             |
|  ADVICE TO THIS USER RUNNING 'VASP/VAMP'   (HEAR YOUR MASTER'S VOICE ...):  |
|                                                                             |
|      You have a (more or less) 'large supercell' and for larger cells       |
|      it might be more efficient to use real space projection opertators     |
|      So try LREAL= Auto  in the INCAR   file.                               |
|      Mind:          For very  accurate calculation you might also keep the  |
|      reciprocal projection scheme          (i.e. LREAL=.FALSE.)             |
|                                                                             |
 ----------------------------------------------------------------------------- 

  PAW_PBE Cd 06Sep2000                  :
 energy of atom  1       EATOM=-1293.1815
 kinetic energy error for atom=    0.0084 (will be added to EATOM!!)
  PAW_PBE Te 08Apr2002                  :
 energy of atom  2       EATOM= -223.2721
 kinetic energy error for atom=    0.0008 (will be added to EATOM!!)


 POSCAR: Cd33 Te32                               
  positions in direct lattice
  No initial velocities read in
 exchange correlation table for  LEXCH =        8
   RHO(1)=    0.500       N(1)  =     2000
   RHO(2)=  100.500       N(2)  =     4000



--------------------------------------------------------------------------------------------------------


 ion  position               nearest neighbor table
   1  0.004  0.996  0.004-  44 2.79  35 2.93  54 2.93  65 2.93  33 2.94
   2  0.001  0.999  0.497-  55 2.82  34 2.82  64 2.82  45 2.84
   3  0.001  0.503  0.001-  63 2.82  56 2.82  37 2.82  42 2.84
   4  1.000  0.501  0.499-  57 2.82  62 2.82  36 2.82  43 2.84
   5  0.497  0.999  0.001-  39 2.82  50 2.82  61 2.82  48 2.84
   6  0.499  0.000  0.499-  38 2.82  51 2.82  60 2.82  49 2.84
   7  0.499  0.501  1.000-  41 2.82  59 2.82  52 2.82  46 2.84
   8  0.501  0.499  0.501-  47 2.82  40 2.83  53 2.83  58 2.83
   9  0.001  0.251  0.253-  54 2.82  34 2.82  62 2.82  42 2.84
  10  0.004  0.254  0.746-  43 2.79  35 2.93  55 2.93  63 2.93  33 2.94
  11  1.000  0.749  0.251-  56 2.82  64 2.82  36 2.82  44 2.84
  12  0.001  0.747  0.749-  65 2.82  57 2.82  37 2.82  45 2.84
  13  0.499  0.250  0.251-  38 2.82  50 2.82  58 2.82  46 2.84
  14  0.497  0.251  0.749-  39 2.82  51 2.82  59 2.82  47 2.84
  15  0.501  0.751  0.249-  48 2.82  40 2.83  52 2.83  60 2.83
  16  0.499  0.749  0.750-  41 2.82  61 2.82  53 2.82  49 2.84
  17  0.251  0.000  0.251-  34 2.82  50 2.82  60 2.82  44 2.84
  18  0.253  0.999  0.749-  35 2.82  51 2.82  61 2.82  45 2.84
  19  0.249  0.499  0.249-  42 2.82  36 2.83  52 2.83  58 2.83
  20  0.251  0.501  0.750-  37 2.82  59 2.82  53 2.82  43 2.84
  21  0.749  0.999  0.253-  54 2.82  38 2.82  64 2.82  48 2.84
  22  0.746  0.996  0.746-  49 2.79  39 2.93  55 2.93  65 2.93  33 2.94
  23  0.750  0.501  0.251-  56 2.82  62 2.82  40 2.82  46 2.84
  24  0.749  0.503  0.749-  63 2.82  57 2.82  41 2.82  47 2.84
  25  0.253  0.251  0.001-  35 2.82  50 2.82  59 2.82  42 2.84
  26  0.251  0.250  0.499-  34 2.82  51 2.82  58 2.82  43 2.84
  27  0.251  0.749  1.000-  37 2.82  61 2.82  52 2.82  44 2.84
  28  0.249  0.751  0.501-  45 2.82  36 2.83  53 2.83  60 2.83
  29  0.746  0.254  0.004-  46 2.79  39 2.93  54 2.93  63 2.93  33 2.94
  30  0.749  0.251  0.497-  55 2.82  38 2.82  62 2.82  47 2.84
  31  0.749  0.747  0.001-  65 2.82  56 2.82  41 2.82  48 2.84
  32  0.750  0.749  0.499-  57 2.82  64 2.82  40 2.82  49 2.84
  33  0.875  0.125  0.875-   1 2.94  10 2.94  22 2.94  29 2.94  35 3.37  39 3.37  54 3.37  55 3.37
                            63 3.37  65 3.37
  34  0.127  0.125  0.375-  17 2.82  26 2.82   2 2.82   9 2.82
  35  0.133  0.125  0.875-  18 2.82  25 2.82  10 2.93   1 2.93  33 3.37
  36  0.126  0.625  0.375-   4 2.82  11 2.82  19 2.83  28 2.83
  37  0.127  0.625  0.875-  20 2.82  27 2.82   3 2.82  12 2.82
  38  0.623  0.125  0.375-  13 2.82   6 2.82  21 2.82  30 2.82
  39  0.617  0.125  0.875-  14 2.82   5 2.82  22 2.93  29 2.93  33 3.37
  40  0.624  0.625  0.375-  23 2.82  32 2.82   8 2.83  15 2.83
  41  0.623  0.625  0.875-   7 2.82  16 2.82  31 2.82  24 2.82
  42  0.125  0.375  0.125-  19 2.82   9 2.84  25 2.84   3 2.84
  43  0.127  0.377  0.623-  10 2.79   4 2.84  26 2.84  20 2.84
  44  0.127  0.873  0.127-   1 2.79  11 2.84  17 2.84  27 2.84
  45  0.125  0.875  0.625-  28 2.82  18 2.84   2 2.84  12 2.84
  46  0.623  0.377  0.127-  29 2.79  13 2.84  23 2.84   7 2.84
  47  0.625  0.375  0.625-   8 2.82  14 2.84  24 2.84  30 2.84
  48  0.625  0.875  0.125-  15 2.82  21 2.84   5 2.84  31 2.84
  49  0.623  0.873  0.623-  22 2.79  32 2.84   6 2.84  16 2.84
  50  0.375  0.125  0.127-  17 2.82  13 2.82   5 2.82  25 2.82
  51  0.375  0.125  0.623-   6 2.82  26 2.82  18 2.82  14 2.82
  52  0.375  0.625  0.126-   7 2.82  27 2.82  19 2.83  15 2.83
  53  0.375  0.625  0.624-  16 2.82  20 2.82   8 2.83  28 2.83
  54  0.875  0.125  0.133-   9 2.82  21 2.82   1 2.93  29 2.93  33 3.37
  55  0.875  0.125  0.617-  30 2.82   2 2.82  22 2.93  10 2.93  33 3.37
  56  0.875  0.625  0.127-  11 2.82  23 2.82   3 2.82  31 2.82
  57  0.875  0.625  0.623-   4 2.82  32 2.82  12 2.82  24 2.82
  58  0.375  0.376  0.375-  26 2.82  13 2.82  19 2.83   8 2.83
  59  0.375  0.377  0.875-   7 2.82  20 2.82  14 2.82  25 2.82
  60  0.375  0.874  0.375-   6 2.82  17 2.82  15 2.83  28 2.83
  61  0.375  0.873  0.875-  16 2.82  27 2.82   5 2.82  18 2.82
  62  0.875  0.377  0.375-   4 2.82  23 2.82   9 2.82  30 2.82
  63  0.875  0.383  0.875-  24 2.82   3 2.82  10 2.93  29 2.93  33 3.37
  64  0.875  0.873  0.375-  11 2.82  32 2.82   2 2.82  21 2.82
  65  0.875  0.867  0.875-  12 2.82  31 2.82   1 2.93  22 2.93  33 3.37


IMPORTANT INFORMATION: All symmetrisations will be switched off!
NOSYMM: (Re-)initialisation of all symmetry stuff for point group C_1.



 KPOINTS: Automatically generated mesh            
  k-points in reciprocal lattice
Space group operators:
 irot       det(A)        alpha          n_x          n_y          n_z        tau_x        tau_y        tau_z
    1     1.000000     0.000000     1.000000     0.000000     0.000000     0.000000     0.000000     0.000000

 ----------------------------------------------------------------------------- 
|                                                                             |
|           W    W    AA    RRRRR   N    N  II  N    N   GGGG   !!!           |
|           W    W   A  A   R    R  NN   N  II  NN   N  G    G  !!!           |
|           W    W  A    A  R    R  N N  N  II  N N  N  G       !!!           |
|           W WW W  AAAAAA  RRRRR   N  N N  II  N  N N  G  GGG   !            |
|           WW  WW  A    A  R   R   N   NN  II  N   NN  G    G                |
|           W    W  A    A  R    R  N    N  II  N    N   GGGG   !!!           |
|                                                                             |
|      Your generating k-point grid is not commensurate to the symmetry       |
|      of the lattice.  This can cause   slow convergence with respect        |
|      to k-points for HF type calculations                                   |
|      suggested SOLUTIONS:                                                   |
|       ) if not already the case, use automatic k-point generation           |
|       ) shift your grid to Gamma (G) (e.g. required for hex or fcc lattice) |
|                                                                             |
 ----------------------------------------------------------------------------- 

 
 Subroutine IBZKPT_HF returns following result:
 ==============================================
 
 Found      8 k-points in 1st BZ
 the following      8 k-points will be used (e.g. in the exchange kernel)
 Following reciprocal coordinates:   # in IRBZ
  0.000000  0.000000  0.000000    0.12500000   1 t-inv F
  0.500000  0.000000  0.000000    0.12500000   2 t-inv F
  0.000000  0.500000  0.000000    0.12500000   3 t-inv F
  0.500000  0.500000  0.000000    0.12500000   4 t-inv F
  0.000000  0.000000  0.500000    0.12500000   5 t-inv F
  0.500000  0.000000  0.500000    0.12500000   6 t-inv F
  0.000000  0.500000  0.500000    0.12500000   7 t-inv F
  0.500000  0.500000  0.500000    0.12500000   8 t-inv F


--------------------------------------------------------------------------------------------------------




 Dimension of arrays:
   k-points           NKPTS =      8   k-points in BZ     NKDIM =      8   number of bands    NBANDS=    784
   number of dos      NEDOS =   2000   number of ions     NIONS =     65
   non local maximal  LDIM  =      6   non local SUM 2l+1 LMDIM =     18
   total plane-waves  NPLWV = 884736
   max r-space proj   IRMAX =      1   max aug-charges    IRDMAX= 183854
   dimension x,y,z NGX =    96 NGY =   96 NGZ =   96
   dimension x,y,z NGXF=   192 NGYF=  192 NGZF=  192
   support grid    NGXF=   384 NGYF=  384 NGZF=  384
   ions per type =              33  32
   NGX,Y,Z   is equivalent  to a cutoff of  12.20, 12.20, 12.20 a.u.
   NGXF,Y,Z  is equivalent  to a cutoff of  24.39, 24.39, 24.39 a.u.

 SYSTEM =  unknown system                          
 POSCAR =  Cd33 Te32                               

 Startparameter for this run:
   NWRITE =      2    write-flag & timer
   PREC   = accura    normal or accurate (medium, high low for compatibility)
   ISTART =      0    job   : 0-new  1-cont  2-samecut
   ICHARG =      1    charge: 1-file 2-atom 10-const
   ISPIN  =      1    spin polarized calculation?
   LNONCOLLINEAR =      T non collinear calculations
   LSORBIT =      T    spin-orbit coupling
   INIWAV =      1    electr: 0-lowe 1-rand  2-diag
   LASPH  =      T    aspherical Exc in radial PAW
   METAGGA=      F    non-selfconsistent MetaGGA calc.

 Electronic Relaxation 1
   ENCUT  =  450.0 eV  33.07 Ry    5.75 a.u.  22.64 22.64 22.64*2*pi/ulx,y,z
   ENINI  =  450.0     initial cutoff
   ENAUG  =  456.1 eV  augmentation charge cutoff
   NELM   =      6;   NELMIN=  2; NELMDL= -5     # of ELM steps 
   EDIFF  = 0.1E-05   stopping-criterion for ELM
   LREAL  =      F    real-space projection
   NLSPLINE    = F    spline interpolate recip. space projectors
   LCOMPAT=      F    compatible to vasp.4.4
   GGA_COMPAT  = T    GGA compatible to vasp.4.4-vasp.4.6
   LMAXPAW     = -100 max onsite density
   LMAXMIX     =    2 max onsite mixed and CHGCAR
   VOSKOWN=      0    Vosko Wilk Nusair interpolation
   ROPT   =    0.00000   0.00000
 Ionic relaxation
   EDIFFG = -.1E-01   stopping-criterion for IOM
   NSW    =      0    number of steps for IOM
   NBLOCK =      1;   KBLOCK =      1    inner block; outer block 
   IBRION =     -1    ionic relax: 0-MD 1-quasi-New 2-CG
   NFREE  =      0    steps in history (QN), initial steepest desc. (CG)
   ISIF   =      2    stress and relaxation
   IWAVPR =     10    prediction:  0-non 1-charg 2-wave 3-comb
   ISYM   =      0    0-nonsym 1-usesym 2-fastsym
   LCORR  =      T    Harris-Foulkes like correction to forces

   POTIM  = 0.5000    time-step for ionic-motion
   TEIN   =    0.0    initial temperature
   TEBEG  =    0.0;   TEEND  =   0.0 temperature during run
   SMASS  =  -3.00    Nose mass-parameter (am)
   estimated Nose-frequenzy (Omega)   =  0.10E-29 period in steps =****** mass=  -0.391E-26a.u.
   SCALEE = 1.0000    scale energy and forces
   NPACO  =    256;   APACO  = 16.0  distance and # of slots for P.C.
   PSTRESS=    0.0 pullay stress

  Mass of Ions in am
   POMASS = 112.41127.60
  Ionic Valenz
   ZVAL   =  12.00  6.00
  Atomic Wigner-Seitz radii
   RWIGS  =  -1.00 -1.00
  virtual crystal weights 
   VCA    =   1.00  1.00
   NELECT =     588.0000    total number of electrons
   NUPDOWN=      -1.0000    fix difference up-down

 DOS related values:
   EMIN   =  10.00;   EMAX   =-10.00  energy-range for DOS
   EFERMI =   0.00
   ISMEAR =     0;   SIGMA  =   0.05  broadening in eV -4-tet -1-fermi 0-gaus

 Electronic relaxation 2 (details)
   IALGO  =     58    algorithm
   LDIAG  =      T    sub-space diagonalisation (order eigenvalues)
   LSUBROT=      F    optimize rotation matrix (better conditioning)
   TURBO    =      0    0=normal 1=particle mesh
   IRESTART =      0    0=no restart 2=restart with 2 vectors
   NREBOOT  =      0    no. of reboots
   NMIN     =      0    reboot dimension
   EREF     =   0.00    reference energy to select bands
   IMIX   =      4    mixing-type and parameters
     AMIX     =   0.40;   BMIX     =  1.00
     AMIX_MAG =   1.60;   BMIX_MAG =  1.00
     AMIN     =   0.10
     WC   =   100.;   INIMIX=   1;  MIXPRE=   1;  MAXMIX= -45

 Intra band minimization:
   WEIMIN = 0.0000     energy-eigenvalue tresh-hold
   EBREAK =  0.32E-09  absolut break condition
   DEPER  =   0.30     relativ break condition  

   TIME   =   0.40     timestep for ELM

  volume/ion in A,a.u.               =      34.48       232.69
  Fermi-wavevector in a.u.,A,eV,Ry     =   1.048017  1.980464 14.943809  1.098339
  Thomas-Fermi vector in A             =   2.182921

 Write flags
   LWAVE        =      T    write WAVECAR
   LDOWNSAMPLE  =      F    k-point downsampling of WAVECAR
   LCHARG       =      T    write CHGCAR
   LVTOT        =      F    write LOCPOT, total local potential
   LVHAR        =      T    write LOCPOT, Hartree potential only
   LELF         =      F    write electronic localiz. function (ELF)
   LORBIT       =     11    0 simple, 1 ext, 2 COOP (PROOUT), +10 PAW based schemes


 Dipole corrections
   LMONO  =      F    monopole corrections only (constant potential shift)
   LDIPOL =      F    correct potential (dipole corrections)
   IDIPOL =      0    1-x, 2-y, 3-z, 4-all directions 
   EPSILON=  1.0000000 bulk dielectric constant

 Exchange correlation treatment:
   GGA     =    --    GGA type
   LEXCH   =     8    internal setting for exchange type
   VOSKOWN=      0    Vosko Wilk Nusair interpolation
   EXXOEP  =     0    0=HF, 1=EXX-LHF (local Hartree Fock) 2=EXX OEP
   LHFCALC =     T    Hartree Fock is set to
   LSYMGRAD=     F    symmetrize gradient (conserves proper symmetry)
   PRECFOCK=fast      Normal, Fast or Accurate (Low or Medium for compatibility)
   LRHFCALC=     F    long range Hartree Fock
   LRSCOR  =     F    long range correlation only (use DFT for short range part)
   LTHOMAS =     F    Thomas Fermi screening in HF
   LMODELHF=     F    short range full HF, long range fraction AEXX
   ENCUT4O =  -1.0   cutoff for four orbital integrals eV
   LMAXFOCK=     4    L truncation for augmentation on plane wave grid
   LMAXFOCKAE=  -1    L truncation for all-electron charge restoration on plane wave grid
   NMAXFOCKAE=   1    number of basis functions for all-electron charge restoration
   LFOCKAEDFT=     F  apply the AE augmentation even for DFT
   NKREDX  =     1    reduce k-point grid by
   NKREDY  =     1    reduce k-point grid by
   NKREDZ  =     1    reduce k-point grid by
   SHIFTRED=     F    shift reduced grid of Gamma
   HFKIDENT=     F    idential grid for each k-point
   ODDONLY =     F    use only odd q-grid points
   EVENONLY=     F    use only even q-grid points
   HFALPHA =   -1.0000 decay constant for conv. correction
   MCALPHA =    0.0000 extent of test-charge in conv. correction in multipole expansion
   AEXX    =    0.2500 exact exchange contribution
   HFSCREEN=    0.2000 screening length (either q_TF or 0.3 A-1)
   HFSCREENC=   0.2000 screening length for correlation (either q_TF or 0.3 A-1)
   HFRCUT  =    0.0000 spherical cutoff for potential kernel
   ALDAX   =    0.7500 LDA exchange part
   AGGAX   =    0.7500 GGA exchange part
   ALDAC   =    1.0000 LDA correlation
   AGGAC   =    1.0000 GGA correlation
   ENCUTFOCK=  -1.0 apply spherical cutoff to Coloumb kernel
   NBANDSGWLOW=     1    first orbital included in HF term
   NBLOCK_FOCK=    64    blocking factor in FOCK_ACC
 Linear response parameters
   LEPSILON=     F    determine dielectric tensor
   LRPA    =     F    only Hartree local field effects (RPA)
   LNABLA  =     F    use nabla operator in PAW spheres
   LVEL    =     F    velocity operator in full k-point grid
   LINTERFAST=   F  fast interpolation
   KINTER  =     0    interpolate to denser k-point grid
   CSHIFT  =0.1000    complex shift for real part using Kramers Kronig
   OMEGAMAX=  -1.0    maximum frequency
   DEG_THRESHOLD= 0.2000000E-02 threshold for treating states as degnerate
   RTIME   =   -0.100 relaxation time in fs
  (WPLASMAI=    0.000 imaginary part of plasma frequency in eV, 0.658/RTIME)
   DFIELD  = 0.0000000 0.0000000 0.0000000 field for delta impulse in time

 Orbital magnetization related:
   ORBITALMAG=     F  switch on orbital magnetization
   LCHIMAG   =     F  perturbation theory with respect to B field
   DQ        =  0.001000  dq finite difference perturbation B field
   LLRAUG    =     F  two centre corrections for induced B field



--------------------------------------------------------------------------------------------------------


 Static calculation
 charge density and potential will be updated during run
 non collinear spin polarized calculation
 Conjugate gradient for all bands (Freysoldt, et al. PRB 79, 241103 (2009))
 preconditioned conjugated gradient                                        
 perform sub-space diagonalisation
    before iterative eigenvector-optimisation
 modified Broyden-mixing scheme, WC =      100.0
 initial mixing is a Kerker type mixing with AMIX =  0.4000 and BMIX =      1.0000
 Hartree-type preconditioning will be used
 using additional bands          490
 reciprocal scheme for non local part
 use partial core corrections
 no Harris-corrections to forces 
 use gradient corrections 
 use of overlap-Matrix (Vanderbilt PP)
 Gauss-broadening in eV      SIGMA  =   0.05


--------------------------------------------------------------------------------------------------------


  energy-cutoff  :      450.00
  volume of cell :     2241.29
      direct lattice vectors                 reciprocal lattice vectors
    13.086768000  0.000000000  0.000000000     0.076413061  0.000000000  0.000000000
     0.000000000 13.086768000  0.000000000     0.000000000  0.076413061  0.000000000
     0.000000000  0.000000000 13.086768000     0.000000000  0.000000000  0.076413061

  length of vectors
    13.086768000 13.086768000 13.086768000     0.076413061  0.076413061  0.076413061



 k-points in units of 2pi/SCALE and weight: Automatically generated mesh            
   0.00000000  0.00000000  0.00000000       0.125
   0.03820653  0.00000000  0.00000000       0.125
   0.00000000  0.03820653  0.00000000       0.125
   0.03820653  0.03820653  0.00000000       0.125
   0.00000000  0.00000000  0.03820653       0.125
   0.03820653  0.00000000  0.03820653       0.125
   0.00000000  0.03820653  0.03820653       0.125
   0.03820653  0.03820653  0.03820653       0.125

 k-points in reciprocal lattice and weights: Automatically generated mesh            
   0.00000000  0.00000000  0.00000000       0.125
   0.50000000  0.00000000  0.00000000       0.125
   0.00000000  0.50000000  0.00000000       0.125
   0.50000000  0.50000000  0.00000000       0.125
   0.00000000  0.00000000  0.50000000       0.125
   0.50000000  0.00000000  0.50000000       0.125
   0.00000000  0.50000000  0.50000000       0.125
   0.50000000  0.50000000  0.50000000       0.125

 position of ions in fractional coordinates (direct lattice) 
   0.00448500  0.99551500  0.00448500
   0.00124700  0.99875300  0.49695900
   0.00124700  0.50304100  0.00124700
   0.99962500  0.50121800  0.49878200
   0.49695900  0.99875300  0.00124700
   0.49878100  0.00037500  0.49878100
   0.49878100  0.50121900  0.99962500
   0.50052800  0.49947200  0.50052800
   0.00124700  0.25124700  0.25304000
   0.00448600  0.25448500  0.74551500
   0.99962500  0.74878200  0.25121800
   0.00124700  0.74695900  0.74875300
   0.49878200  0.24962500  0.25121900
   0.49696000  0.25124700  0.74875300
   0.50052800  0.75052800  0.24947200
   0.49878100  0.74878100  0.75037500
   0.25121900  0.00037500  0.25121900
   0.25304000  0.99875300  0.74875300
   0.24947200  0.49947200  0.24947200
   0.25121900  0.50121900  0.75037500
   0.74875300  0.99875300  0.25304000
   0.74551400  0.99551500  0.74551500
   0.75037500  0.50121900  0.25121900
   0.74875300  0.50304000  0.74875300
   0.25304000  0.25124700  0.00124700
   0.25121900  0.24962500  0.49878100
   0.25121900  0.74878100  0.99962500
   0.24947200  0.75052800  0.50052800
   0.74551400  0.25448500  0.00448500
   0.74875300  0.25124700  0.49696000
   0.74875300  0.74695900  0.00124700
   0.75037500  0.74878200  0.49878200
   0.87500000  0.12500000  0.87500000
   0.12665600  0.12500000  0.37500000
   0.13277900  0.12500000  0.87500000
   0.12589200  0.62500000  0.37500000
   0.12665600  0.62500000  0.87500000
   0.62334400  0.12500000  0.37500000
   0.61722100  0.12500000  0.87500000
   0.62410800  0.62500000  0.37500000
   0.62334400  0.62500000  0.87500000
   0.12484800  0.37484800  0.12484800
   0.12748800  0.37748800  0.62251200
   0.12748800  0.87251200  0.12748800
   0.12484800  0.87515200  0.62515200
   0.62251200  0.37748800  0.12748800
   0.62515200  0.37484800  0.62515200
   0.62515200  0.87515200  0.12484800
   0.62251200  0.87251200  0.62251200
   0.37500000  0.12500000  0.12665600
   0.37500000  0.12500000  0.62334400
   0.37500000  0.62500000  0.12589200
   0.37500000  0.62500000  0.62410800
   0.87500000  0.12500000  0.13277900
   0.87500000  0.12500000  0.61722100
   0.87500000  0.62500000  0.12665600
   0.87500000  0.62500000  0.62334400
   0.37500000  0.37589200  0.37500000
   0.37500000  0.37665600  0.87500000
   0.37500000  0.87410800  0.37500000
   0.37500000  0.87334400  0.87500000
   0.87500000  0.37665600  0.37500000
   0.87500000  0.38277900  0.87500000
   0.87500000  0.87334400  0.37500000
   0.87500000  0.86722100  0.87500000

 position of ions in cartesian coordinates  (Angst):
   0.05869415 13.02807385  0.05869415
   0.01631920 13.07044880  6.50358714
   0.01631920  6.58318086  0.01631920
  13.08186046  6.55932368  6.52744432
   6.50358714 13.07044880  0.01631920
   6.52743123  0.00490754  6.52743123
   6.52743123  6.55933677 13.08186046
   6.55029381  6.53647419  6.55029381
   0.01631920  3.28801120  3.31147577
   0.05870724  3.33038615  9.75638185
  13.08186046  9.79913632  3.28763168
   0.01631920  9.77527914  9.79875680
   6.52744432  3.26678446  3.28764477
   6.50360023  3.28801120  9.79875680
   6.55029381  9.82198581  3.26478219
   6.52743123  9.79912323  9.81998354
   3.28764477  0.00490754  3.28764477
   3.31147577 13.07044880  9.79875680
   3.26478219  6.53647419  3.26478219
   3.28764477  6.55933677  9.81998354
   9.79875680 13.07044880  3.31147577
   9.75636876 13.02807385  9.75638185
   9.81998354  6.55933677  3.28764477
   9.79875680  6.58316777  9.79875680
   3.31147577  3.28801120  0.01631920
   3.28764477  3.26678446  6.52743123
   3.28764477  9.79912323 13.08186046
   3.26478219  9.82198581  6.55029381
   9.75636876  3.33038615  0.05869415
   9.79875680  3.28801120  6.50360023
   9.79875680  9.77527914  0.01631920
   9.81998354  9.79913632  6.52744432
  11.45092200  1.63584600 11.45092200
   1.65751769  1.63584600  4.90753800
   1.73764797  1.63584600 11.45092200
   1.64751940  8.17923000  4.90753800
   1.65751769  8.17923000 11.45092200
   8.15755831  1.63584600  4.90753800
   8.07742803  1.63584600 11.45092200
   8.16755660  8.17923000  4.90753800
   8.15755831  8.17923000 11.45092200
   1.63385681  4.90554881  1.63385681
   1.66840588  4.94009788  8.14667012
   1.66840588 11.41836212  1.66840588
   1.63385681 11.45291119  8.18121919
   8.14667012  4.94009788  1.66840588
   8.18121919  4.90554881  8.18121919
   8.18121919 11.45291119  1.63385681
   8.14667012 11.41836212  8.14667012
   4.90753800  1.63584600  1.65751769
   4.90753800  1.63584600  8.15755831
   4.90753800  8.17923000  1.64751940
   4.90753800  8.17923000  8.16755660
  11.45092200  1.63584600  1.73764797
  11.45092200  1.63584600  8.07742803
  11.45092200  8.17923000  1.65751769
  11.45092200  8.17923000  8.15755831
   4.90753800  4.91921140  4.90753800
   4.90753800  4.92920969 11.45092200
   4.90753800 11.43924860  4.90753800
   4.90753800 11.42925031 11.45092200
  11.45092200  4.92920969  4.90753800
  11.45092200  5.00933997 11.45092200
  11.45092200 11.42925031  4.90753800
  11.45092200 11.34912003 11.45092200

 Euler angles ALPHA=     0.0000000  BETA=     0.0000000

 transformation matrix from SAXIS to cartesian coordinates
 ---------------------------------------------------------
     1.0000000 m_x    -0.0000000 m_y     0.0000000 m_z
     0.0000000 m_x     1.0000000 m_y     0.0000000 m_z
    -0.0000000 m_x     0.0000000 m_y     1.0000000 m_z

 transformation matrix from cartesian coordinates to SAXIS
 ---------------------------------------------------------
     1.0000000 m_x     0.0000000 m_y    -0.0000000 m_z
    -0.0000000 m_x     1.0000000 m_y     0.0000000 m_z
     0.0000000 m_x     0.0000000 m_y     1.0000000 m_z




--------------------------------------------------------------------------------------------------------


 k-point  1 :   0.0000 0.0000 0.0000  plane waves:   97002
 k-point  2 :   0.5000 0.0000 0.0000  plane waves:   97356
 k-point  3 :   0.0000 0.5000 0.0000  plane waves:   97356
 k-point  4 :   0.5000 0.5000 0.0000  plane waves:   96960
 k-point  5 :   0.0000 0.0000 0.5000  plane waves:   97356
 k-point  6 :   0.5000 0.0000 0.5000  plane waves:   96960
 k-point  7 :   0.0000 0.5000 0.5000  plane waves:   96960
 k-point  8 :   0.5000 0.5000 0.5000  plane waves:   96832

 maximum and minimum number of plane-waves per node :      3116     2976

 maximum number of plane-waves:     97356
 maximum index in each direction: 
   IXMAX=   22   IYMAX=   22   IZMAX=   22
   IXMIN=  -23   IYMIN=  -23   IZMIN=  -23


 parallel 3D FFT for wavefunctions:
    minimum data exchange during FFTs selected (reduces bandwidth)
 parallel 3D FFT for charge:
    minimum data exchange during FFTs selected (reduces bandwidth)


 FFT grid for exact exchange (Hartree Fock) 
  NGX = 48; NGY = 48; NGZ = 48


 Radii for the augmentation spheres in the non-local exchange
 for species   1 augmentation radius   1.444 (default was   1.070)
       energy cutoff for augmentation   1800.0
 for species   2 augmentation radius   1.606 (default was   1.190)
       energy cutoff for augmentation   1800.0

 real space projection operators:
  total allocation   :       9375.20 KBytes
  max/ min on nodes  :        432.62        141.21

 Maximum index for augmentation-charges in exchange           97
  SETUP_FOCK is finished

 total amount of memory used by VASP MPI-rank0   116355. kBytes
=======================================================================

   base      :      30000. kBytes
   nonl-proj :       5136. kBytes
   fftplans  :       6884. kBytes
   grid      :      12386. kBytes
   one-center:        186. kBytes
   HF        :        129. kBytes
   nonlr-proj:       1424. kBytes
   wavefun   :      60210. kBytes

     INWAV:  cpu time    0.0000: real time    0.0000
 Broyden mixing: mesh for mixing (old mesh)
   NGX = 45   NGY = 45   NGZ = 45
  (NGX  =192   NGY  =192   NGZ  =192)
  gives a total of  91125 points

 initial charge density was supplied:
 charge density of overlapping atoms calculated
 number of electron     588.0000000 magnetization      65.0000000     65.0000000     65.0000000
 keeping initial charge density in first step


--------------------------------------------------------------------------------------------------------


 Maximum index for augmentation-charges         3093 (set IRDMAX)


--------------------------------------------------------------------------------------------------------


 First call to EWALD:  gamma=   0.135
 Maximum number of real-space cells 3x 3x 3
 Maximum number of reciprocal cells 3x 3x 3

    FEWALD:  cpu time    0.0063: real time    0.0063


--------------------------------------- Iteration      1(   1)  ---------------------------------------


    POTLOK:  cpu time    0.2753: real time    0.2758
    SETDIJ:  cpu time    1.3792: real time    1.3794
    TRIAL :  cpu time    8.1149: real time    8.1470
    CORREC:  cpu time    0.0017: real time    0.0017
    --------------------------------------------
      LOOP:  cpu time    9.8248: real time    9.8575

 eigenvalue-minimisations  : 12544
 total energy-change (2. order) : 0.4600553E+04  (-0.2545669E+05)
 number of electron     588.0000000 magnetization      65.0000000     65.0000000     65.0000000
 augmentation part      588.0000000 magnetization      65.0000000     65.0000000     65.0000000

 Free energy of the ion-electron system (eV)
  ---------------------------------------------------
  alpha Z        PSCENC =      1642.45118531
  Ewald energy   TEWEN  =    -33940.17512420
  -Hartree energ DENC   =    -17077.89199325
  -exchange      EXHF   =         0.00000000
  -V(xc)+E(xc)   XCENC  =      -617.56595420
  PAW double counting   =     46020.13618675   -43994.38451620
  entropy T*S    EENTRO =        -0.03157993
  eigenvalues    EBANDS =      2818.58967885
  atomic energy  EATOM  =     49749.42546356
  ---------------------------------------------------
  free energy    TOTEN  =      4600.55334670 eV

  energy without entropy =     4600.58492663  energy(sigma->0) =     4600.56913667
  exchange ACFDT corr.  =         0.00000000  see jH, gK, PRB 81, 115126


--------------------------------------------------------------------------------------------------------




--------------------------------------- Iteration      1(   2)  ---------------------------------------


    TRIAL :  cpu time    5.7499: real time    5.7500
    CORREC:  cpu time    0.0019: real time    0.0019
    --------------------------------------------
      LOOP:  cpu time    5.7587: real time    5.7693

 eigenvalue-minimisations  : 13680
 total energy-change (2. order) :-0.3424210E+04  (-0.3262216E+04)
 number of electron     588.0000000 magnetization      65.0000000     65.0000000     65.0000000
 augmentation part      588.0000000 magnetization      65.0000000     65.0000000     65.0000000

 Free energy of the ion-electron system (eV)
  ---------------------------------------------------
  alpha Z        PSCENC =      1642.45118531
  Ewald energy   TEWEN  =    -33940.17512420
  -Hartree energ DENC   =    -17077.89199325
  -exchange      EXHF   =         0.00000000
  -V(xc)+E(xc)   XCENC  =      -617.56595420
  PAW double counting   =     46020.13618675   -43994.38451620
  entropy T*S    EENTRO =        -0.01229983
  eigenvalues    EBANDS =      -605.63998564
  atomic energy  EATOM  =     49749.42546356
  ---------------------------------------------------
  free energy    TOTEN  =      1176.34296231 eV

  energy without entropy =     1176.35526214  energy(sigma->0) =     1176.34911223
  exchange ACFDT corr.  =         0.00000000  see jH, gK, PRB 81, 115126


--------------------------------------------------------------------------------------------------------




--------------------------------------- Iteration      1(   3)  ---------------------------------------


    TRIAL :  cpu time    6.0640: real time    6.0645
    CORREC:  cpu time    0.0017: real time    0.0017
    --------------------------------------------
      LOOP:  cpu time    6.0700: real time    6.0803

 eigenvalue-minimisations  : 14432
 total energy-change (2. order) :-0.2293884E+03  (-0.2267235E+03)
 number of electron     588.0000000 magnetization      65.0000000     65.0000000     65.0000000
 augmentation part      588.0000000 magnetization      65.0000000     65.0000000     65.0000000

 Free energy of the ion-electron system (eV)
  ---------------------------------------------------
  alpha Z        PSCENC =      1642.45118531
  Ewald energy   TEWEN  =    -33940.17512420
  -Hartree energ DENC   =    -17077.89199325
  -exchange      EXHF   =         0.00000000
  -V(xc)+E(xc)   XCENC  =      -617.56595420
  PAW double counting   =     46020.13618675   -43994.38451620
  entropy T*S    EENTRO =        -0.01253711
  eigenvalues    EBANDS =      -835.02810294
  atomic energy  EATOM  =     49749.42546356
  ---------------------------------------------------
  free energy    TOTEN  =       946.95460773 eV

  energy without entropy =      946.96714484  energy(sigma->0) =      946.96087629
  exchange ACFDT corr.  =         0.00000000  see jH, gK, PRB 81, 115126


--------------------------------------------------------------------------------------------------------




--------------------------------------- Iteration      1(   4)  ---------------------------------------


    TRIAL :  cpu time    6.0241: real time    6.0245
    CORREC:  cpu time    0.0018: real time    0.0018
    --------------------------------------------
      LOOP:  cpu time    6.0311: real time    6.0419

 eigenvalue-minimisations  : 14512
 total energy-change (2. order) :-0.5264115E+01  (-0.5250783E+01)
 number of electron     588.0000000 magnetization      65.0000000     65.0000000     65.0000000
 augmentation part      588.0000000 magnetization      65.0000000     65.0000000     65.0000000

 Free energy of the ion-electron system (eV)
  ---------------------------------------------------
  alpha Z        PSCENC =      1642.45118531
  Ewald energy   TEWEN  =    -33940.17512420
  -Hartree energ DENC   =    -17077.89199325
  -exchange      EXHF   =         0.00000000
  -V(xc)+E(xc)   XCENC  =      -617.56595420
  PAW double counting   =     46020.13618675   -43994.38451620
  entropy T*S    EENTRO =        -0.01278462
  eigenvalues    EBANDS =      -840.29197014
  atomic energy  EATOM  =     49749.42546356
  ---------------------------------------------------
  free energy    TOTEN  =       941.69049302 eV

  energy without entropy =      941.70327764  energy(sigma->0) =      941.69688533
  exchange ACFDT corr.  =         0.00000000  see jH, gK, PRB 81, 115126


--------------------------------------------------------------------------------------------------------




--------------------------------------- Iteration      1(   5)  ---------------------------------------


    TRIAL :  cpu time    6.3524: real time    6.3531
    CORREC:  cpu time    0.0018: real time    0.0018
    CHARGE:  cpu time    0.3850: real time    0.3851
    --------------------------------------------
      LOOP:  cpu time    6.7456: real time    6.7564

 eigenvalue-minimisations  : 15488
 total energy-change (2. order) :-0.1006424E+00  (-0.1004584E+00)
 number of electron     588.0000006 magnetization       0.6809623      0.6809538      0.6809591
 augmentation part      145.5183897 magnetization       0.5828449      0.5827706      0.5828464

 Free energy of the ion-electron system (eV)
  ---------------------------------------------------
  alpha Z        PSCENC =      1642.45118531
  Ewald energy   TEWEN  =    -33940.17512420
  -Hartree energ DENC   =    -17077.89199325
  -exchange      EXHF   =         0.00000000
  -V(xc)+E(xc)   XCENC  =      -617.56595420
  PAW double counting   =     46020.13618675   -43994.38451620
  entropy T*S    EENTRO =        -0.01278142
  eigenvalues    EBANDS =      -840.39261570
  atomic energy  EATOM  =     49749.42546356
  ---------------------------------------------------
  free energy    TOTEN  =       941.58985066 eV

  energy without entropy =      941.60263208  energy(sigma->0) =      941.59624137
  exchange ACFDT corr.  =         0.00000000  see jH, gK, PRB 81, 115126


--------------------------------------------------------------------------------------------------------




--------------------------------------- Iteration      1(   6)  ---------------------------------------


    POTLOK:  cpu time    0.2590: real time    0.2590
    SETDIJ:  cpu time    1.3450: real time    1.3453
    TRIAL :  cpu time  539.0848: real time  539.1112
    CORREC:  cpu time  542.0888: real time  542.1099
    EDDIAG:  cpu time  536.5456: real time  536.5697
    CHARGE:  cpu time    0.2885: real time    0.2885
    --------------------------------------------
      LOOP:  cpu time 1619.6169: real time 1619.6968

 eigenvalue-minimisations  :     0
 total energy-change (2. order) :-0.3627939E+05  (-0.1766240E-56)
 number of electron     588.0000006 magnetization       0.1876396      0.2261942     -1.1054818
 augmentation part      146.2514875 magnetization       0.7589269      0.7752299      1.1164392

 Free energy of the ion-electron system (eV)
  ---------------------------------------------------
  alpha Z        PSCENC =      1642.45118531
  Ewald energy   TEWEN  =    -33940.17512420
  -Hartree energ DENC   =    -15675.20879360
  -exchange      EXHF   =      1095.44952063
  -V(xc)+E(xc)   XCENC  =      -655.55556347
  PAW double counting   =    120191.55682748  -118103.17461838
  entropy T*S    EENTRO =        -0.01278142
  eigenvalues    EBANDS =    -74841.40342005
  atomic energy  EATOM  =     49749.42546356
  ---------------------------------------------------
  free energy    TOTEN  =    -35337.79624839 eV

  energy without entropy =   -35337.78346697  energy(sigma->0) =   -35337.78985768
  exchange ACFDT corr.  =        -0.01689094  see jH, gK, PRB 81, 115126


--------------------------------------------------------------------------------------------------------


  average scaling for gradient   0.9385


 average (electrostatic) potential at core
  the test charge radii are     1.0698  1.1897
  (the norm of the test charge is              1.0000)
       1 -31.8812       2 -32.4265       3 -31.6668       4 -32.1322       5 -31.2294
       6 -31.6443       7 -31.5578       8 -31.7625       9 -32.0527      10 -31.1535
      11 -32.4937      12 -32.0535      13 -31.5913      14 -31.1665      15 -31.8419
      16 -31.6059      17 -32.0478      18 -31.5779      19 -32.0924      20 -31.9258
      21 -31.3039      22 -30.3838      23 -31.5068      24 -31.0286      25 -31.4962
      26 -32.0018      27 -31.9574      28 -32.1750      29 -30.2757      30 -31.1763
      31 -31.1970      32 -31.6404      33 -28.4482      34 -88.9831      35 -87.6260
      36 -89.1359      37 -88.6842      38 -88.1684      39 -86.9230      40 -88.5124
      41 -88.1736      42 -88.4198      43 -88.6591      44 -88.7751      45 -88.5612
      46 -88.0502      47 -87.9098      48 -88.0012      49 -87.9808      50 -88.4336
      51 -88.4287      52 -88.6642      53 -88.6815      54 -87.4511      55 -87.5103
      56 -88.4408      57 -88.5887      58 -88.6915      59 -88.4034      60 -88.7590
      61 -88.4640      62 -88.5864      63 -87.3433      64 -88.7647      65 -87.4870



 E-fermi :   5.1787     XC(G=0):  -7.3038     alpha+bet : -7.2837


 k-point     1 :       0.0000    0.0000    0.0000
  band No.  band energies     occupation 
      1     -10.8009      1.00000
      2     -10.6441      1.00000
      3     -10.6225      1.00000
      4     -10.5802      1.00000
      5     -10.5420      1.00000
      6     -10.5276      1.00000
      7     -10.4706      1.00000
      8     -10.4380      1.00000
      9     -10.4177      1.00000
     10     -10.3744      1.00000
     11     -10.3517      1.00000
     12     -10.3421      1.00000
     13     -10.3075      1.00000
     14     -10.2937      1.00000
     15     -10.2496      1.00000
     16     -10.2437      1.00000
     17     -10.1996      1.00000
     18     -10.1698      1.00000
     19     -10.1510      1.00000
     20     -10.1195      1.00000
     21     -10.0840      1.00000
     22     -10.0052      1.00000
     23      -9.9688      1.00000
     24      -9.9540      1.00000
     25      -9.9494      1.00000
     26      -9.8933      1.00000
     27      -9.8747      1.00000
     28      -9.6949      1.00000
     29      -9.6362      1.00000
     30      -9.6074      1.00000
     31      -9.5246      1.00000
     32      -9.4258      1.00000
     33      -9.3287      1.00000
     34      -9.0343      1.00000
     35      -7.9894      1.00000
     36      -7.9808      1.00000
     37      -7.9576      1.00000
     38      -7.9109      1.00000
     39      -7.8749      1.00000
     40      -7.8512      1.00000
     41      -7.8358      1.00000
     42      -7.8117      1.00000
     43      -7.7786      1.00000
     44      -7.7700      1.00000
     45      -7.7592      1.00000
     46      -7.7501      1.00000
     47      -7.7292      1.00000
     48      -7.7181      1.00000
     49      -7.7082      1.00000
     50      -7.6998      1.00000
     51      -7.6946      1.00000
     52      -7.6877      1.00000
     53      -7.6826      1.00000
     54      -7.6769      1.00000
     55      -7.6679      1.00000
     56      -7.6368      1.00000
     57      -7.6259      1.00000
     58      -7.6175      1.00000
     59      -7.6097      1.00000
     60      -7.6046      1.00000
     61      -7.5954      1.00000
     62      -7.5788      1.00000
     63      -7.5756      1.00000
     64      -7.5674      1.00000
     65      -7.5585      1.00000
     66      -7.5443      1.00000
     67      -7.5385      1.00000
     68      -7.5283      1.00000
     69      -7.5213      1.00000
     70      -7.5173      1.00000
     71      -7.5083      1.00000
     72      -7.4938      1.00000
     73      -7.4891      1.00000
     74      -7.4871      1.00000
     75      -7.4772      1.00000
     76      -7.4562      1.00000
     77      -7.4434      1.00000
     78      -7.4394      1.00000
     79      -7.4254      1.00000
     80      -7.4074      1.00000
     81      -7.3956      1.00000
     82      -7.3808      1.00000
     83      -7.3681      1.00000
     84      -7.3538      1.00000
     85      -7.3473      1.00000
     86      -7.3430      1.00000
     87      -7.3385      1.00000
     88      -7.3344      1.00000
     89      -7.3255      1.00000
     90      -7.3055      1.00000
     91      -7.2982      1.00000
     92      -7.2875      1.00000
     93      -7.2772      1.00000
     94      -7.2703      1.00000
     95      -7.2658      1.00000
     96      -7.2614      1.00000
     97      -7.2583      1.00000
     98      -7.2542      1.00000
     99      -7.2473      1.00000
    100      -7.2434      1.00000
    101      -7.2382      1.00000
    102      -7.2357      1.00000
    103      -7.2328      1.00000
    104      -7.2266      1.00000
    105      -7.2245      1.00000
    106      -7.2153      1.00000
    107      -7.2109      1.00000
    108      -7.2064      1.00000
    109      -7.2051      1.00000
    110      -7.1984      1.00000
    111      -7.1943      1.00000
    112      -7.1914      1.00000
    113      -7.1859      1.00000
    114      -7.1803      1.00000
    115      -7.1771      1.00000
    116      -7.1701      1.00000
    117      -7.1655      1.00000
    118      -7.1610      1.00000
    119      -7.1540      1.00000
    120      -7.1523      1.00000
    121      -7.1479      1.00000
    122      -7.1441      1.00000
    123      -7.1323      1.00000
    124      -7.1286      1.00000
    125      -7.1228      1.00000
    126      -7.1192      1.00000
    127      -7.1105      1.00000
    128      -7.1035      1.00000
    129      -7.0993      1.00000
    130      -7.0949      1.00000
    131      -7.0910      1.00000
    132      -7.0864      1.00000
    133      -7.0796      1.00000
    134      -7.0699      1.00000
    135      -7.0653      1.00000
    136      -7.0636      1.00000
    137      -7.0560      1.00000
    138      -7.0494      1.00000
    139      -7.0445      1.00000
    140      -7.0397      1.00000
    141      -7.0351      1.00000
    142      -7.0266      1.00000
    143      -7.0230      1.00000
    144      -7.0179      1.00000
    145      -7.0155      1.00000
    146      -7.0101      1.00000
    147      -7.0012      1.00000
    148      -6.9935      1.00000
    149      -6.9888      1.00000
    150      -6.9810      1.00000
    151      -6.9714      1.00000
    152      -6.9686      1.00000
    153      -6.9647      1.00000
    154      -6.9586      1.00000
    155      -6.9550      1.00000
    156      -6.9461      1.00000
    157      -6.9423      1.00000
    158      -6.9386      1.00000
    159      -6.9344      1.00000
    160      -6.9328      1.00000
    161      -6.9280      1.00000
    162      -6.9206      1.00000
    163      -6.9117      1.00000
    164      -6.9054      1.00000
    165      -6.9025      1.00000
    166      -6.8976      1.00000
    167      -6.8902      1.00000
    168      -6.8832      1.00000
    169      -6.8788      1.00000
    170      -6.8745      1.00000
    171      -6.8681      1.00000
    172      -6.8611      1.00000
    173      -6.8592      1.00000
    174      -6.8557      1.00000
    175      -6.8513      1.00000
    176      -6.8457      1.00000
    177      -6.8421      1.00000
    178      -6.8379      1.00000
    179      -6.8317      1.00000
    180      -6.8304      1.00000
    181      -6.8269      1.00000
    182      -6.8223      1.00000
    183      -6.8204      1.00000
    184      -6.8162      1.00000
    185      -6.8136      1.00000
    186      -6.8101      1.00000
    187      -6.8034      1.00000
    188      -6.8018      1.00000
    189      -6.7965      1.00000
    190      -6.7930      1.00000
    191      -6.7908      1.00000
    192      -6.7861      1.00000
    193      -6.7831      1.00000
    194      -6.7799      1.00000
    195      -6.7744      1.00000
    196      -6.7716      1.00000
    197      -6.7678      1.00000
    198      -6.7633      1.00000
    199      -6.7604      1.00000
    200      -6.7544      1.00000
    201      -6.7489      1.00000
    202      -6.7420      1.00000
    203      -6.7398      1.00000
    204      -6.7346      1.00000
    205      -6.7287      1.00000
    206      -6.7243      1.00000
    207      -6.7201      1.00000
    208      -6.7149      1.00000
    209      -6.7063      1.00000
    210      -6.7043      1.00000
    211      -6.6994      1.00000
    212      -6.6904      1.00000
    213      -6.6879      1.00000
    214      -6.6825      1.00000
    215      -6.6756      1.00000
    216      -6.6734      1.00000
    217      -6.6680      1.00000
    218      -6.6634      1.00000
    219      -6.6568      1.00000
    220      -6.6507      1.00000
    221      -6.6437      1.00000
    222      -6.6390      1.00000
    223      -6.6348      1.00000
    224      -6.6302      1.00000
    225      -6.6232      1.00000
    226      -6.6182      1.00000
    227      -6.6128      1.00000
    228      -6.6096      1.00000
    229      -6.6037      1.00000
    230      -6.5983      1.00000
    231      -6.5934      1.00000
    232      -6.5854      1.00000
    233      -6.5779      1.00000
    234      -6.5718      1.00000
    235      -6.5644      1.00000
    236      -6.5600      1.00000
    237      -6.5585      1.00000
    238      -6.5466      1.00000
    239      -6.5437      1.00000
    240      -6.5393      1.00000
    241      -6.5345      1.00000
    242      -6.5310      1.00000
    243      -6.5245      1.00000
    244      -6.5189      1.00000
    245      -6.5184      1.00000
    246      -6.5100      1.00000
    247      -6.5078      1.00000
    248      -6.5031      1.00000
    249      -6.4984      1.00000
    250      -6.4904      1.00000
    251      -6.4860      1.00000
    252      -6.4829      1.00000
    253      -6.4802      1.00000
    254      -6.4736      1.00000
    255      -6.4671      1.00000
    256      -6.4615      1.00000
    257      -6.4573      1.00000
    258      -6.4519      1.00000
    259      -6.4504      1.00000
    260      -6.4445      1.00000
    261      -6.4435      1.00000
    262      -6.4357      1.00000
    263      -6.4307      1.00000
    264      -6.4271      1.00000
    265      -6.4225      1.00000
    266      -6.4140      1.00000
    267      -6.4118      1.00000
    268      -6.4073      1.00000
    269      -6.4054      1.00000
    270      -6.4022      1.00000
    271      -6.3931      1.00000
    272      -6.3798      1.00000
    273      -6.3762      1.00000
    274      -6.3694      1.00000
    275      -6.3668      1.00000
    276      -6.3550      1.00000
    277      -6.3512      1.00000
    278      -6.3446      1.00000
    279      -6.3366      1.00000
    280      -6.3302      1.00000
    281      -6.3213      1.00000
    282      -6.3172      1.00000
    283      -6.3007      1.00000
    284      -6.2914      1.00000
    285      -6.2806      1.00000
    286      -6.2757      1.00000
    287      -6.2654      1.00000
    288      -6.2630      1.00000
    289      -6.2562      1.00000
    290      -6.2519      1.00000
    291      -6.2282      1.00000
    292      -6.2127      1.00000
    293      -6.2036      1.00000
    294      -6.1903      1.00000
    295      -6.1743      1.00000
    296      -6.1530      1.00000
    297      -6.1440      1.00000
    298      -6.1329      1.00000
    299      -6.1275      1.00000
    300      -6.1211      1.00000
    301      -6.1070      1.00000
    302      -6.1023      1.00000
    303      -6.0962      1.00000
    304      -6.0943      1.00000
    305      -6.0799      1.00000
    306      -6.0721      1.00000
    307      -6.0650      1.00000
    308      -6.0578      1.00000
    309      -6.0548      1.00000
    310      -6.0463      1.00000
    311      -6.0434      1.00000
    312      -6.0313      1.00000
    313      -6.0231      1.00000
    314      -6.0206      1.00000
    315      -6.0117      1.00000
    316      -6.0052      1.00000
    317      -6.0016      1.00000
    318      -5.9865      1.00000
    319      -5.9854      1.00000
    320      -5.9748      1.00000
    321      -5.9698      1.00000
    322      -5.9658      1.00000
    323      -5.9597      1.00000
    324      -5.9521      1.00000
    325      -5.9472      1.00000
    326      -5.9383      1.00000
    327      -5.9341      1.00000
    328      -5.9224      1.00000
    329      -5.9139      1.00000
    330      -5.8989      1.00000
    331      -5.8940      1.00000
    332      -5.8778      1.00000
    333      -5.8619      1.00000
    334      -5.8476      1.00000
    335      -5.8415      1.00000
    336      -5.8195      1.00000
    337      -5.7944      1.00000
    338      -5.7793      1.00000
    339      -5.7571      1.00000
    340      -5.7373      1.00000
    341      -5.3853      1.00000
    342      -5.3629      1.00000
    343      -5.3254      1.00000
    344      -5.3131      1.00000
    345      -5.2906      1.00000
    346      -5.2685      1.00000
    347      -5.2543      1.00000
    348      -5.2311      1.00000
    349      -5.2076      1.00000
    350      -5.1708      1.00000
    351      -5.1507      1.00000
    352      -5.1220      1.00000
    353      -4.2409      1.00000
    354      -4.1967      1.00000
    355      -4.1652      1.00000
    356      -4.1412      1.00000
    357      -4.1212      1.00000
    358      -3.9656      1.00000
    359      -3.8463      1.00000
    360      -3.7971      1.00000
    361      -3.7024      1.00000
    362      -3.6002      1.00000
    363      -3.5612      1.00000
    364      -3.5389      1.00000
    365      -3.5234      1.00000
    366      -3.5101      1.00000
    367      -3.5007      1.00000
    368      -3.4875      1.00000
    369      -3.3904      1.00000
    370      -3.2888      1.00000
    371      -3.2678      1.00000
    372      -3.2561      1.00000
    373      -3.2328      1.00000
    374      -3.2177      1.00000
    375      -3.1964      1.00000
    376      -3.1707      1.00000
    377      -3.1594      1.00000
    378      -3.1131      1.00000
    379      -3.0681      1.00000
    380      -3.0038      1.00000
    381      -2.9577      1.00000
    382      -2.9273      1.00000
    383      -2.9073      1.00000
    384      -2.8653      1.00000
    385      -2.8224      1.00000
    386      -2.7993      1.00000
    387      -2.7322      1.00000
    388      -2.6917      1.00000
    389      -2.6725      1.00000
    390      -2.6208      1.00000
    391      -2.6021      1.00000
    392      -2.5928      1.00000
    393      -2.5318      1.00000
    394      -2.5206      1.00000
    395      -2.4819      1.00000
    396      -2.4704      1.00000
    397      -2.4404      1.00000
    398      -2.4220      1.00000
    399      -2.4110      1.00000
    400      -2.3702      1.00000
    401      -2.3535      1.00000
    402      -2.3284      1.00000
    403      -2.3044      1.00000
    404      -2.2867      1.00000
    405      -2.2786      1.00000
    406      -2.2616      1.00000
    407      -2.2393      1.00000
    408      -2.1833      1.00000
    409      -2.1269      1.00000
    410      -2.0610      1.00000
    411      -2.0216      1.00000
    412      -1.9847      1.00000
    413      -1.8966      1.00000
    414      -1.8495      1.00000
    415      -1.7156      1.00000
    416      -1.5738      1.00000
    417      -1.5446      1.00000
    418      -1.4541      1.00000
    419      -1.4306      1.00000
    420      -1.4041      1.00000
    421      -1.3718      1.00000
    422      -1.3371      1.00000
    423      -1.3072      1.00000
    424      -1.2717      1.00000
    425      -1.2419      1.00000
    426      -1.2298      1.00000
    427      -1.2134      1.00000
    428      -1.1984      1.00000
    429      -1.1913      1.00000
    430      -1.1815      1.00000
    431      -1.1427      1.00000
    432      -1.1282      1.00000
    433      -1.1006      1.00000
    434      -1.0952      1.00000
    435      -1.0680      1.00000
    436      -1.0507      1.00000
    437      -1.0362      1.00000
    438      -1.0247      1.00000
    439      -1.0128      1.00000
    440      -0.9899      1.00000
    441      -0.9813      1.00000
    442      -0.9658      1.00000
    443      -0.9451      1.00000
    444      -0.9359      1.00000
    445      -0.9211      1.00000
    446      -0.9184      1.00000
    447      -0.9075      1.00000
    448      -0.8891      1.00000
    449      -0.8847      1.00000
    450      -0.8761      1.00000
    451      -0.8542      1.00000
    452      -0.8469      1.00000
    453      -0.8394      1.00000
    454      -0.8339      1.00000
    455      -0.8144      1.00000
    456      -0.8014      1.00000
    457      -0.7930      1.00000
    458      -0.7818      1.00000
    459      -0.7584      1.00000
    460      -0.7384      1.00000
    461      -0.7172      1.00000
    462      -0.6856      1.00000
    463      -0.6779      1.00000
    464      -0.6701      1.00000
    465      -0.6428      1.00000
    466      -0.6307      1.00000
    467      -0.6190      1.00000
    468      -0.6154      1.00000
    469      -0.5816      1.00000
    470      -0.5707      1.00000
    471      -0.5592      1.00000
    472      -0.5380      1.00000
    473      -0.5236      1.00000
    474      -0.5072      1.00000
    475      -0.4949      1.00000
    476      -0.4429      1.00000
    477      -0.3692      1.00000
    478      -0.3449      1.00000
    479      -0.3286      1.00000
    480      -0.2916      1.00000
    481      -0.2856      1.00000
    482      -0.2581      1.00000
    483      -0.2438      1.00000
    484      -0.2069      1.00000
    485      -0.1764      1.00000
    486      -0.0641      1.00000
    487       0.0040      1.00000
    488       0.0515      1.00000
    489       0.0838      1.00000
    490       0.0998      1.00000
    491       0.1203      1.00000
    492       0.1433      1.00000
    493       0.1463      1.00000
    494       0.1645      1.00000
    495       0.1907      1.00000
    496       0.2025      1.00000
    497       0.2219      1.00000
    498       0.2299      1.00000
    499       0.2442      1.00000
    500       0.2491      1.00000
    501       0.2725      1.00000
    502       0.2799      1.00000
    503       0.2972      1.00000
    504       0.3096      1.00000
    505       0.3778      1.00000
    506       0.3824      1.00000
    507       0.4023      1.00000
    508       0.4125      1.00000
    509       0.4327      1.00000
    510       0.4355      1.00000
    511       0.4471      1.00000
    512       0.4736      1.00000
    513       0.4932      1.00000
    514       0.5018      1.00000
    515       0.5107      1.00000
    516       0.5314      1.00000
    517       0.5406      1.00000
    518       0.5526      1.00000
    519       0.5709      1.00000
    520       0.5798      1.00000
    521       0.5894      1.00000
    522       0.5976      1.00000
    523       0.6176      1.00000
    524       0.6495      1.00000
    525       0.6607      1.00000
    526       0.6728      1.00000
    527       0.7025      1.00000
    528       0.7213      1.00000
    529       0.7304      1.00000
    530       0.7592      1.00000
    531       0.7655      1.00000
    532       0.7825      1.00000
    533       0.7881      1.00000
    534       0.7981      1.00000
    535       0.8170      1.00000
    536       0.8300      1.00000
    537       0.8653      1.00000
    538       0.8837      1.00000
    539       0.9109      1.00000
    540       0.9421      1.00000
    541       1.0232      1.00000
    542       1.0838      1.00000
    543       1.1086      1.00000
    544       1.1261      1.00000
    545       1.1936      1.00000
    546       1.2114      1.00000
    547       1.2580      1.00000
    548       1.3013      1.00000
    549       1.3460      1.00000
    550       1.4092      1.00000
    551       1.6145      1.00000
    552       1.8034      1.00000
    553       1.8420      1.00000
    554       1.8664      1.00000
    555       2.0090      1.00000
    556       2.9439      1.00000
    557       3.9438      1.00000
    558      13.7823      1.00000
    559      13.8508      1.00000
    560      13.9046      1.00000
    561      13.9599      1.00000
    562      14.0091      1.00000
    563      14.0675      1.00000
    564      14.0923      1.00000
    565      14.1024      1.00000
    566      14.1031      1.00000
    567      14.7917      1.00000
    568      14.8026      1.00000
    569      14.8089      1.00000
    570      14.8162      1.00000
    571      14.9206      1.00000
    572      15.0181      1.00000
    573      15.0276      1.00000
    574      15.0299      1.00000
    575      15.0451      1.00000
    576      15.0517      1.00000
    577      15.0524      1.00000
    578      15.0553      1.00000
    579      15.0638      1.00000
    580      15.0698      1.00000
    581      15.0794      1.00000
    582      15.0926      1.00000
    583      15.1370      1.00000
    584      15.1671      1.00000
    585      15.1835      1.00000
    586      15.1864      1.00000
    587      15.1953      1.00000
    588      15.2220      1.00000
    589      15.2270      1.00000
    590       5.2443      0.97193
    591       5.2455      0.97110
    592       5.2479      0.97095
    593       5.2604      0.30163
    594       5.2713      0.00536
    595       5.2733      0.00000
    596       5.2796      0.00000
    597       5.2844      0.00000
    598       5.2876      0.00000
    599       5.2982      0.00000
    600       5.3037      0.00000
    601       5.3314      0.00000
    602       5.3351      0.00000
    603       5.3424      0.00000
    604       5.3603      0.00000
    605       5.3775      0.00000
    606       5.3812      0.00000
    607       5.3957      0.00000
    608       5.4016      0.00000
    609       5.4207      0.00000
    610       5.4259      0.00000
    611       5.4322      0.00000
    612       5.4367      0.00000
    613       5.4370      0.00000
    614       5.4397      0.00000
    615       5.4417      0.00000
    616       5.4524      0.00000
    617       5.4556      0.00000
    618       5.4591      0.00000
    619       5.4718      0.00000
    620       5.4776      0.00000
    621       5.5114      0.00000
    622       5.5312      0.00000
    623       5.5410      0.00000
    624       5.6631      0.00000
    625       5.8390      0.00000
    626       6.4016      0.00000
    627       6.4669      0.00000
    628       6.4998      0.00000
    629       6.5136      0.00000
    630       6.6382      0.00000
    631       6.6429      0.00000
    632       6.7605      0.00000
    633       6.7719      0.00000
    634       6.7754      0.00000
    635       6.8210      0.00000
    636       6.8403      0.00000
    637       6.8407      0.00000
    638       6.8495      0.00000
    639       6.8509      0.00000
    640       6.8565      0.00000
    641       6.8762      0.00000
    642       6.8959      0.00000
    643       6.9000      0.00000
    644       6.9104      0.00000
    645       6.9299      0.00000
    646       6.9454      0.00000
    647       6.9491      0.00000
    648       6.9521      0.00000
    649       6.9819      0.00000
    650       7.0293      0.00000
    651       7.0304      0.00000
    652       7.0564      0.00000
    653       7.0809      0.00000
    654       7.0920      0.00000
    655       7.1104      0.00000
    656       7.1205      0.00000
    657       7.1951      0.00000
    658       7.2246      0.00000
    659       7.2662      0.00000
    660       7.2759      0.00000
    661       7.2845      0.00000
    662       7.2856      0.00000
    663       7.2960      0.00000
    664       7.3138      0.00000
    665       7.3430      0.00000
    666       7.3514      0.00000
    667       7.3608      0.00000
    668       7.3719      0.00000
    669       7.4080      0.00000
    670       7.4284      0.00000
    671       7.4287      0.00000
    672       7.4370      0.00000
    673       7.4514      0.00000
    674       7.5008      0.00000
    675       7.5020      0.00000
    676       7.5062      0.00000
    677       7.5224      0.00000
    678       7.5250      0.00000
    679       7.5272      0.00000
    680       7.5318      0.00000
    681       7.5505      0.00000
    682       7.5561      0.00000
    683       7.5638      0.00000
    684       7.5671      0.00000
    685       7.5756      0.00000
    686       7.5807      0.00000
    687       7.5812      0.00000
    688       7.5981      0.00000
    689       7.6059      0.00000
    690       7.6080      0.00000
    691       7.6090      0.00000
    692       7.6097      0.00000
    693       7.6099      0.00000
    694       7.6119      0.00000
    695       7.6211      0.00000
    696       7.6211      0.00000
    697       7.6238      0.00000
    698       7.6295      0.00000
    699       7.6347      0.00000
    700       7.6363      0.00000
    701       7.6373      0.00000
    702       7.6545      0.00000
    703       7.6583      0.00000
    704       7.6600      0.00000
    705       7.6684      0.00000
    706       7.6689      0.00000
    707       7.6926      0.00000
    708       7.7061      0.00000
    709       7.7101      0.00000
    710       7.7675      0.00000
    711       7.7845      0.00000
    712       7.7863      0.00000
    713       7.8092      0.00000
    714       7.8437      0.00000
    715       7.8745      0.00000
    716       7.8808      0.00000
    717       8.0116      0.00000
    718       8.0350      0.00000
    719       8.0353      0.00000
    720       8.0425      0.00000
    721       8.0451      0.00000
    722       8.0627      0.00000
    723       8.0648      0.00000
    724       8.0690      0.00000
    725       8.0807      0.00000
    726       8.0937      0.00000
    727       8.0942      0.00000
    728       8.1194      0.00000
    729       8.1502      0.00000
    730       8.1767      0.00000
    731       8.1824      0.00000
    732       8.1895      0.00000
    733       8.1963      0.00000
    734       8.2052      0.00000
    735       8.2093      0.00000
    736       8.2163      0.00000
    737       8.2206      0.00000
    738       8.2379      0.00000
    739       8.2404      0.00000
    740       8.2426      0.00000
    741       8.2481      0.00000
    742       8.2683      0.00000
    743       8.2780      0.00000
    744       8.2918      0.00000
    745       8.3105      0.00000
    746       8.3503      0.00000
    747       8.3941      0.00000
    748       8.4344      0.00000
    749       8.4778      0.00000
    750       8.5231      0.00000
    751       8.5278      0.00000
    752       8.5504      0.00000
    753       8.6348      0.00000
    754       8.9990      0.00000
    755       9.2888      0.00000
    756       9.6524      0.00000
    757       9.8754      0.00000
    758      10.0302      0.00000
    759      10.3884      0.00000
    760      10.7336      0.00000
    761      10.8459      0.00000
    762      11.0960      0.00000
    763      11.6122      0.00000
    764      11.8025      0.00000
    765      11.8575      0.00000
    766      12.0368      0.00000
    767      12.0989      0.00000
    768      12.3825      0.00000
    769      12.5017      0.00000
    770      12.8793      0.00000
    771      13.1291      0.00000
    772      13.4991      0.00000
    773      14.3521      0.00000
    774      14.5193      0.00000
    775      15.0948      0.00000
    776      15.4961      0.00000
    777      15.7204      0.00000
    778      16.2139      0.00000
    779      16.5729      0.00000
    780      17.0900      0.00000
    781      18.2390      0.00000
    782      20.0334      0.00000
    783     325.4017      0.00000
    784     373.5301      0.00000

 k-point     2 :       0.5000    0.0000    0.0000
  band No.  band energies     occupation 
      1     -16.0468      1.00000
      2     -13.8818      1.00000
      3     -13.6627      1.00000
      4     -13.1893      1.00000
      5     -12.8604      1.00000
      6     -12.5725      1.00000
      7     -12.2105      1.00000
      8     -11.4738      1.00000
      9     -11.3648      1.00000
     10     -11.2072      1.00000
     11     -10.9884      1.00000
     12     -10.9738      1.00000
     13     -10.8253      1.00000
     14     -10.8054      1.00000
     15     -10.7906      1.00000
     16     -10.7387      1.00000
     17     -10.6809      1.00000
     18     -10.6627      1.00000
     19     -10.6342      1.00000
     20     -10.5735      1.00000
     21     -10.5688      1.00000
     22     -10.5441      1.00000
     23     -10.5351      1.00000
     24     -10.4949      1.00000
     25     -10.4758      1.00000
     26     -10.4624      1.00000
     27     -10.4541      1.00000
     28     -10.4309      1.00000
     29     -10.4136      1.00000
     30     -10.3981      1.00000
     31     -10.3874      1.00000
     32     -10.3710      1.00000
     33     -10.3649      1.00000
     34     -10.3453      1.00000
     35     -10.3287      1.00000
     36     -10.3049      1.00000
     37     -10.2804      1.00000
     38     -10.2696      1.00000
     39     -10.2548      1.00000
     40     -10.2244      1.00000
     41     -10.1703      1.00000
     42     -10.1543      1.00000
     43     -10.1213      1.00000
     44     -10.1125      1.00000
     45     -10.0757      1.00000
     46     -10.0293      1.00000
     47     -10.0164      1.00000
     48      -9.9917      1.00000
     49      -9.9608      1.00000
     50      -9.8904      1.00000
     51      -9.8744      1.00000
     52      -9.8208      1.00000
     53      -9.6368      1.00000
     54      -9.5809      1.00000
     55      -9.5419      1.00000
     56      -9.5277      1.00000
     57      -9.4668      1.00000
     58      -9.4224      1.00000
     59      -9.4098      1.00000
     60      -9.3960      1.00000
     61      -9.2707      1.00000
     62      -9.1865      1.00000
     63      -9.0267      1.00000
     64      -7.9817      1.00000
     65      -7.9600      1.00000
     66      -7.9334      1.00000
     67      -7.9249      1.00000
     68      -7.8553      1.00000
     69      -7.8218      1.00000
     70      -7.8002      1.00000
     71      -7.7744      1.00000
     72      -7.7664      1.00000
     73      -7.7572      1.00000
     74      -7.7349      1.00000
     75      -7.7241      1.00000
     76      -7.7092      1.00000
     77      -7.6974      1.00000
     78      -7.6939      1.00000
     79      -7.6792      1.00000
     80      -7.6752      1.00000
     81      -7.6586      1.00000
     82      -7.6416      1.00000
     83      -7.6361      1.00000
     84      -7.6253      1.00000
     85      -7.6177      1.00000
     86      -7.6112      1.00000
     87      -7.6013      1.00000
     88      -7.5878      1.00000
     89      -7.5843      1.00000
     90      -7.5747      1.00000
     91      -7.5667      1.00000
     92      -7.5545      1.00000
     93      -7.5511      1.00000
     94      -7.5354      1.00000
     95      -7.5322      1.00000
     96      -7.5236      1.00000
[...]
 l=   3
     0.0000000     0.0000000     0.0000000     0.0000000     0.0000000     0.0000000     0.0000000
     0.0000000     0.0000000     0.0000000     0.0000000     0.0000000     0.0000000     0.0000000
     0.0000000     0.0000000     0.0000000     0.0000000     0.0000000     0.0000000     0.0000000
     0.0000000     0.0000000     0.0000000     0.0000000     0.0000000     0.0000000     0.0000000
     0.0000000     0.0000000     0.0000000     0.0000000     0.0000000     0.0000000     0.0000000
     0.0000000     0.0000000     0.0000000     0.0000000     0.0000000     0.0000000     0.0000000
     0.0000000     0.0000000     0.0000000     0.0000000     0.0000000     0.0000000     0.0000000

 Ion:   61  E_soc:     -0.1803550
 l=   1
     0.0000000    -0.0301358    -0.0298542
    -0.0301358     0.0000000    -0.0298727
    -0.0298542    -0.0298727     0.0000000
 l=   2
     0.0000000    -0.0000296     0.0000000    -0.0000342    -0.0000756
    -0.0000296     0.0000000    -0.0000579    -0.0000274    -0.0000182
     0.0000000    -0.0000579     0.0000000    -0.0000527     0.0000000
    -0.0000342    -0.0000274    -0.0000527     0.0000000    -0.0000191
    -0.0000756    -0.0000182     0.0000000    -0.0000191     0.0000000
 l=   3
     0.0000000     0.0000000     0.0000000     0.0000000     0.0000000     0.0000000     0.0000000
     0.0000000     0.0000000     0.0000000     0.0000000     0.0000000     0.0000000     0.0000000
     0.0000000     0.0000000     0.0000000     0.0000000     0.0000000     0.0000000     0.0000000
     0.0000000     0.0000000     0.0000000     0.0000000     0.0000000     0.0000000     0.0000000
     0.0000000     0.0000000     0.0000000     0.0000000     0.0000000     0.0000000     0.0000000
     0.0000000     0.0000000     0.0000000     0.0000000     0.0000000     0.0000000     0.0000000
     0.0000000     0.0000000     0.0000000     0.0000000     0.0000000     0.0000000     0.0000000

 Ion:   62  E_soc:     -0.1772705
 l=   1
     0.0000000    -0.0296846    -0.0289063
    -0.0296846     0.0000000    -0.0297335
    -0.0289063    -0.0297335     0.0000000
 l=   2
     0.0000000    -0.0000315     0.0000000    -0.0000304    -0.0000712
    -0.0000315     0.0000000    -0.0000566    -0.0000291    -0.0000206
     0.0000000    -0.0000566     0.0000000    -0.0000525     0.0000000
    -0.0000304    -0.0000291    -0.0000525     0.0000000    -0.0000188
    -0.0000712    -0.0000206     0.0000000    -0.0000188    -0.0000000
 l=   3
     0.0000000     0.0000000     0.0000000     0.0000000     0.0000000     0.0000000     0.0000000
     0.0000000     0.0000000     0.0000000     0.0000000     0.0000000     0.0000000     0.0000000
     0.0000000     0.0000000     0.0000000     0.0000000     0.0000000     0.0000000     0.0000000
     0.0000000     0.0000000     0.0000000     0.0000000     0.0000000     0.0000000     0.0000000
     0.0000000     0.0000000     0.0000000     0.0000000     0.0000000     0.0000000     0.0000000
     0.0000000     0.0000000     0.0000000     0.0000000     0.0000000     0.0000000     0.0000000
     0.0000000     0.0000000     0.0000000     0.0000000     0.0000000     0.0000000     0.0000000

 Ion:   63  E_soc:     -0.1807125
 l=   1
     0.0000000    -0.0303534    -0.0297954
    -0.0303534     0.0000000    -0.0299406
    -0.0297954    -0.0299406     0.0000000
 l=   2
     0.0000000    -0.0000267     0.0000000    -0.0000260    -0.0000628
    -0.0000267     0.0000000    -0.0000475    -0.0000262    -0.0000144
     0.0000000    -0.0000475     0.0000000    -0.0000480     0.0000000
    -0.0000260    -0.0000262    -0.0000480     0.0000000    -0.0000153
    -0.0000628    -0.0000144     0.0000000    -0.0000153     0.0000000
 l=   3
     0.0000000     0.0000000     0.0000000     0.0000000     0.0000000     0.0000000     0.0000000
     0.0000000     0.0000000     0.0000000     0.0000000     0.0000000     0.0000000     0.0000000
     0.0000000     0.0000000     0.0000000     0.0000000     0.0000000     0.0000000     0.0000000
     0.0000000     0.0000000     0.0000000     0.0000000     0.0000000     0.0000000     0.0000000
     0.0000000     0.0000000     0.0000000     0.0000000     0.0000000     0.0000000     0.0000000
     0.0000000     0.0000000     0.0000000     0.0000000     0.0000000     0.0000000     0.0000000
     0.0000000     0.0000000     0.0000000     0.0000000     0.0000000     0.0000000     0.0000000

 Ion:   64  E_soc:     -0.1782799
 l=   1
     0.0000000    -0.0305072    -0.0284576
    -0.0305072     0.0000000    -0.0298588
    -0.0284576    -0.0298588     0.0000000
 l=   2
     0.0000000    -0.0000293     0.0000000    -0.0000274    -0.0000753
    -0.0000293     0.0000000    -0.0000587    -0.0000350    -0.0000186
     0.0000000    -0.0000587     0.0000000    -0.0000550     0.0000000
    -0.0000274    -0.0000350    -0.0000550     0.0000000    -0.0000169
    -0.0000753    -0.0000186     0.0000000    -0.0000169    -0.0000000
 l=   3
     0.0000000     0.0000000     0.0000000     0.0000000     0.0000000     0.0000000     0.0000000
     0.0000000     0.0000000     0.0000000     0.0000000     0.0000000     0.0000000     0.0000000
     0.0000000     0.0000000     0.0000000     0.0000000     0.0000000     0.0000000     0.0000000
     0.0000000     0.0000000     0.0000000     0.0000000     0.0000000     0.0000000     0.0000000
     0.0000000     0.0000000     0.0000000     0.0000000     0.0000000     0.0000000     0.0000000
     0.0000000     0.0000000     0.0000000     0.0000000     0.0000000     0.0000000     0.0000000
     0.0000000     0.0000000     0.0000000     0.0000000     0.0000000     0.0000000     0.0000000

 Ion:   65  E_soc:     -0.1809261
 l=   1
     0.0000000    -0.0305081    -0.0296365
    -0.0305081     0.0000000    -0.0300418
    -0.0296365    -0.0300418     0.0000000
 l=   2
     0.0000000    -0.0000255     0.0000000    -0.0000269    -0.0000651
    -0.0000255     0.0000000    -0.0000498    -0.0000281    -0.0000155
     0.0000000    -0.0000498     0.0000000    -0.0000496     0.0000000
    -0.0000269    -0.0000281    -0.0000496     0.0000000    -0.0000162
    -0.0000651    -0.0000155     0.0000000    -0.0000162     0.0000000
 l=   3
     0.0000000     0.0000000     0.0000000     0.0000000     0.0000000     0.0000000     0.0000000
     0.0000000     0.0000000     0.0000000     0.0000000     0.0000000     0.0000000     0.0000000
     0.0000000     0.0000000     0.0000000     0.0000000     0.0000000     0.0000000     0.0000000
     0.0000000     0.0000000     0.0000000     0.0000000     0.0000000     0.0000000     0.0000000
     0.0000000     0.0000000     0.0000000     0.0000000     0.0000000     0.0000000     0.0000000
     0.0000000     0.0000000     0.0000000     0.0000000     0.0000000     0.0000000     0.0000000
     0.0000000     0.0000000     0.0000000     0.0000000     0.0000000     0.0000000     0.0000000



 total charge     

# of ion       s       p       d       tot
------------------------------------------
    1        0.434   0.279   9.351  10.063
    2        0.441   0.292   9.377  10.110
    3        0.443   0.292   9.409  10.144
    4        0.438   0.292   9.415  10.144
    5        0.445   0.294   9.428  10.166
    6        0.442   0.294   9.427  10.163
    7        0.445   0.293   9.427  10.165
    8        0.443   0.291   9.427  10.161
    9        0.441   0.292   9.395  10.128
   10        0.431   0.278   9.394  10.103
   11        0.440   0.292   9.392  10.124
   12        0.442   0.292   9.392  10.126
   13        0.442   0.294   9.427  10.162
   14        0.445   0.293   9.427  10.165
   15        0.443   0.291   9.427  10.160
   16        0.445   0.293   9.427  10.165
   17        0.437   0.294   9.425  10.155
   18        0.440   0.293   9.427  10.161
   19        0.441   0.291   9.427  10.159
   20        0.439   0.294   9.425  10.158
   21        0.437   0.294   9.426  10.158
   22        0.432   0.280   9.425  10.137
   23        0.436   0.294   9.425  10.155
   24        0.439   0.293   9.426  10.158
   25        0.446   0.293   9.427  10.166
   26        0.440   0.293   9.425  10.159
   27        0.444   0.293   9.426  10.163
   28        0.442   0.291   9.427  10.159
   29        0.435   0.280   9.425  10.139
   30        0.441   0.294   9.427  10.162
   31        0.443   0.294   9.427  10.163
   32        0.441   0.293   9.425  10.159
   33        0.625   0.199   9.427  10.250
   34        1.220   2.161   0.031   3.412
   35        1.264   2.138   0.031   3.433
   36        1.228   2.164   0.031   3.422
   37        1.219   2.165   0.031   3.416
   38        1.263   2.171   0.031   3.466
   39        1.313   2.144   0.031   3.489
   40        1.273   2.166   0.031   3.470
   41        1.265   2.169   0.031   3.465
   42        1.253   2.165   0.029   3.448
   43        1.234   2.156   0.030   3.420
   44        1.237   2.155   0.030   3.422
   45        1.245   2.162   0.029   3.437
   46        1.282   2.159   0.030   3.471
   47        1.286   2.165   0.029   3.481
   48        1.284   2.166   0.029   3.480
   49        1.293   2.162   0.030   3.485
   50        1.260   2.170   0.031   3.462
   51        1.261   2.170   0.031   3.462
   52        1.271   2.168   0.031   3.470
   53        1.271   2.166   0.030   3.468
   54        1.265   2.145   0.031   3.442
   55        1.268   2.142   0.031   3.441
   56        1.223   2.168   0.031   3.422
   57        1.223   2.167   0.031   3.421
   58        1.270   2.167   0.031   3.468
   59        1.262   2.168   0.031   3.461
   60        1.269   2.165   0.031   3.465
   61        1.262   2.167   0.031   3.460
   62        1.222   2.163   0.031   3.416
   63        1.266   2.141   0.031   3.439
   64        1.223   2.164   0.031   3.418
   65        1.269   2.143   0.031   3.443
--------------------------------------------------
tot         54.964  78.658 311.766 445.388



 magnetization (x)

# of ion       s       p       d       tot
------------------------------------------
    1        0.002  -0.001   0.001   0.002
    2        0.004  -0.001   0.004   0.007
    3        0.004  -0.001   0.009   0.011
    4        0.001  -0.001  -0.001  -0.000
    5        0.002  -0.001   0.006   0.006
    6        0.002  -0.002   0.005   0.005
    7        0.002  -0.002   0.005   0.005
    8       -0.000  -0.002   0.005   0.002
    9        0.003  -0.001   0.003   0.004
   10        0.001  -0.001   0.005   0.005
   11        0.003  -0.001   0.001   0.003
   12        0.003  -0.001   0.002   0.004
   13        0.002  -0.002   0.005   0.005
   14        0.002  -0.001   0.006   0.006
   15       -0.000  -0.002   0.005   0.002
   16        0.002  -0.002   0.005   0.005
   17       -0.001  -0.002   0.004   0.002
   18       -0.000  -0.001   0.006   0.005
   19       -0.001  -0.002   0.005   0.002
   20       -0.001  -0.002   0.005   0.002
   21       -0.001  -0.002   0.005   0.003
   22       -0.000  -0.001   0.008   0.007
   23       -0.001  -0.002   0.004   0.001
   24       -0.001  -0.002   0.005   0.003
   25        0.003  -0.001   0.006   0.008
   26        0.001  -0.002   0.004   0.003
   27        0.001  -0.002   0.005   0.004
   28       -0.000  -0.002   0.005   0.002
   29        0.000  -0.001   0.008   0.007
   30        0.002  -0.002   0.005   0.005
   31        0.002  -0.001   0.005   0.005
   32        0.002  -0.002   0.004   0.004
   33        0.038   0.003   0.006   0.047
   34        0.006   0.031   0.001   0.037
   35        0.012   0.037   0.001   0.050
   36        0.006   0.029   0.001   0.036
   37        0.007   0.030   0.001   0.038
   38       -0.024   0.031   0.001   0.008
   39       -0.004   0.039   0.001   0.036
   40       -0.022   0.027   0.001   0.006
   41       -0.025   0.030   0.001   0.005
   42        0.010   0.030   0.000   0.040
   43        0.007   0.029   0.000   0.036
   44        0.009   0.029   0.000   0.038
   45        0.010   0.029   0.000   0.039
   46       -0.014   0.028   0.000   0.014
   47       -0.012   0.029   0.000   0.017
   48       -0.014   0.028   0.000   0.015
   49       -0.007   0.030   0.000   0.023
   50       -0.025   0.031   0.001   0.007
   51       -0.024   0.032   0.001   0.008
   52       -0.021   0.030   0.001   0.010
   53       -0.021   0.029   0.001   0.009
   54        0.012   0.035   0.001   0.048
   55        0.012   0.034   0.001   0.047
   56        0.009   0.030   0.001   0.040
   57        0.009   0.030   0.001   0.039
   58       -0.021   0.030   0.001   0.010
   59       -0.024   0.032   0.001   0.009
   60       -0.021   0.028   0.001   0.008
   61       -0.024   0.032   0.001   0.009
   62        0.008   0.031   0.001   0.039
   63        0.013   0.035   0.001   0.049
   64        0.008   0.030   0.001   0.039
   65        0.012   0.037   0.001   0.051
--------------------------------------------------
tot         -0.078   0.945   0.175   1.042



 magnetization (y)

# of ion       s       p       d       tot
------------------------------------------
    1        0.002  -0.001   0.009   0.009
    2        0.003  -0.001   0.007   0.009
    3        0.004  -0.001   0.006   0.009
    4        0.002  -0.001   0.003   0.005
    5        0.002  -0.001   0.006   0.006
    6        0.002  -0.002   0.005   0.006
    7        0.002  -0.002   0.005   0.005
    8       -0.000  -0.002   0.005   0.002
    9        0.003  -0.001   0.006   0.007
   10        0.001  -0.001   0.010   0.009
   11        0.003  -0.001   0.004   0.006
   12        0.004  -0.001   0.006   0.008
   13        0.002  -0.002   0.005   0.005
   14        0.002  -0.002   0.006   0.006
   15       -0.000  -0.002   0.005   0.002
   16        0.002  -0.002   0.005   0.005
   17       -0.001  -0.002   0.004   0.001
   18       -0.000  -0.001   0.006   0.004
   19       -0.001  -0.002   0.005   0.002
   20       -0.001  -0.002   0.005   0.001
   21       -0.001  -0.002   0.006   0.003
   22       -0.000  -0.001   0.008   0.007
   23       -0.001  -0.002   0.004   0.001
   24        0.000  -0.001   0.005   0.004
   25        0.002  -0.001   0.006   0.007
   26        0.001  -0.002   0.004   0.003
   27        0.002  -0.002   0.005   0.004
   28       -0.001  -0.002   0.005   0.002
   29        0.001  -0.001   0.008   0.008
   30        0.002  -0.002   0.005   0.005
   31        0.002  -0.001   0.005   0.006
   32        0.002  -0.002   0.004   0.004
   33        0.038   0.003   0.006   0.047
   34        0.005   0.030   0.001   0.036
   35        0.011   0.035   0.001   0.047
   36        0.007   0.029   0.001   0.036
   37        0.007   0.032   0.001   0.039
   38       -0.025   0.033   0.001   0.009
   39       -0.004   0.037   0.001   0.035
   40       -0.022   0.028   0.001   0.006
   41       -0.025   0.031   0.001   0.007
   42        0.010   0.029   0.000   0.039
   43        0.007   0.028   0.000   0.035
   44        0.009   0.027   0.000   0.037
   45        0.009   0.029   0.000   0.038
   46       -0.014   0.028   0.000   0.015
   47       -0.012   0.028   0.000   0.016
   48       -0.013   0.029   0.000   0.016
   49       -0.007   0.030   0.000   0.023
   50       -0.024   0.032   0.001   0.008
   51       -0.024   0.031   0.001   0.008
   52       -0.021   0.030   0.001   0.010
   53       -0.021   0.029   0.001   0.008
   54        0.012   0.037   0.001   0.049
   55        0.011   0.036   0.001   0.048
   56        0.009   0.030   0.001   0.040
   57        0.008   0.031   0.001   0.040
   58       -0.021   0.032   0.001   0.011
   59       -0.024   0.032   0.001   0.008
   60       -0.021   0.029   0.001   0.008
   61       -0.024   0.032   0.001   0.009
   62        0.009   0.030   0.001   0.040
   63        0.013   0.036   0.001   0.050
   64        0.008   0.031   0.001   0.041
   65        0.013   0.038   0.001   0.052
--------------------------------------------------
tot         -0.078   0.951   0.203   1.075



 magnetization (z)

# of ion       s       p       d       tot
------------------------------------------
    1        0.001  -0.002  -0.061  -0.062
    2        0.004  -0.003  -0.028  -0.027
    3        0.004  -0.003  -0.007  -0.006
    4        0.004  -0.003   0.006   0.006
    5        0.002  -0.001   0.006   0.007
    6        0.002  -0.002   0.005   0.006
    7        0.002  -0.002   0.005   0.005
    8       -0.000  -0.002   0.005   0.003
    9        0.004  -0.003  -0.019  -0.018
   10       -0.000  -0.003  -0.005  -0.008
   11        0.004  -0.004  -0.013  -0.013
   12        0.004  -0.003  -0.022  -0.022
   13        0.002  -0.002   0.005   0.005
   14        0.002  -0.002   0.006   0.006
   15       -0.000  -0.002   0.005   0.003
   16        0.003  -0.002   0.005   0.006
   17       -0.001  -0.002   0.005   0.001
   18       -0.001  -0.002   0.006   0.004
   19       -0.001  -0.002   0.005   0.002
   20       -0.001  -0.002   0.005   0.001
   21       -0.000  -0.002   0.006   0.004
   22       -0.000  -0.001   0.008   0.007
   23       -0.000  -0.002   0.004   0.002
   24        0.000  -0.002   0.005   0.004
   25        0.002  -0.002   0.006   0.007
   26        0.001  -0.002   0.004   0.004
   27        0.002  -0.002   0.004   0.004
   28       -0.001  -0.002   0.005   0.002
   29        0.001  -0.001   0.008   0.007
   30        0.002  -0.002   0.005   0.005
   31        0.002  -0.001   0.005   0.006
   32        0.002  -0.002   0.004   0.004
   33        0.038   0.002   0.006   0.046
   34       -0.031   0.024   0.001  -0.007
   35       -0.048   0.032   0.001  -0.015
   36       -0.032   0.027   0.001  -0.005
   37       -0.034   0.025   0.001  -0.008
   38       -0.022   0.032   0.001   0.011
   39       -0.002   0.037   0.001   0.036
   40       -0.017   0.028   0.001   0.012
   41       -0.021   0.029   0.001   0.009
   42       -0.044   0.027   0.000  -0.016
   43       -0.042   0.026   0.000  -0.016
   44       -0.042   0.024   0.000  -0.017
   45       -0.044   0.025   0.000  -0.018
   46       -0.011   0.028   0.000   0.017
   47       -0.009   0.029   0.000   0.019
   48       -0.010   0.030   0.000   0.020
   49       -0.005   0.030   0.000   0.025
   50       -0.020   0.029   0.001   0.010
   51       -0.020   0.030   0.001   0.010
   52       -0.018   0.029   0.001   0.011
   53       -0.018   0.029   0.001   0.011
   54       -0.039   0.034   0.001  -0.004
   55       -0.037   0.033   0.001  -0.003
   56       -0.030   0.025   0.001  -0.004
   57       -0.030   0.025   0.001  -0.004
   58       -0.017   0.030   0.001   0.013
   59       -0.021   0.030   0.001   0.009
   60       -0.017   0.028   0.001   0.012
   61       -0.021   0.028   0.001   0.008
   62       -0.033   0.026   0.001  -0.006
   63       -0.039   0.034   0.001  -0.004
   64       -0.031   0.027   0.001  -0.004
   65       -0.037   0.035   0.001  -0.000
--------------------------------------------------
tot         -0.760   0.860   0.002   0.103


 total amount of memory used by VASP MPI-rank0   125247. kBytes
=======================================================================

   base      :      30000. kBytes
   nonl-proj :       5136. kBytes
   fftplans  :       6884. kBytes
   grid      :      12386. kBytes
   one-center:        186. kBytes
   HF        :        129. kBytes
   nonlr-proj:      10316. kBytes
   wavefun   :      60210. kBytes

  
  
 General timing and accounting informations for this job:
 ========================================================
  
                  Total CPU time used (sec):     3024.609
                            User time (sec):     2962.266
                          System time (sec):       62.343
                         Elapsed time (sec):     3032.795
  
                   Maximum memory used (kb):      614792.
                   Average memory used (kb):           0.
  
                          Minor page faults:       296824
                          Major page faults:           37
                 Voluntary context switches:        12121
