 +-------------------------------------------------+
 |                                                 |
 |      CCC   AA    SSS  TTTTT  EEEEE  PPPP        |
 |     C     A  A  S       T    E      P   P       |
 |     C     AAAA   SS     T    EEE    PPPP        |
 |     C     A  A     S    T    E      P           |
 |      CCC  A  A  SSS     T    EEEEE  P           |
 |                                                 |
 +-------------------------------------------------+
 |                                                 |
 | Welcome to Academic Release CASTEP version 21.11|          
 | Ab Initio Total Energy Program                  |
 |                                                 |
 | Authors:                                        |
 | M. Segall, M. Probert, C. Pickard, P. Hasnip,   |
 | S. Clark, K. Refson, J. R. Yates, M. Payne      |
 |                                                 |
 | Contributors:                                   |
 | P. Lindan, P. Haynes, J. White, V. Milman,      |
 | N. Govind, M. Gibson, P. Tulip, V. Cocula,      |
 | B. Montanari, D. Quigley, M. Glover,            |
 | L. Bernasconi, A. Perlov, M. Plummer,           |
 | E. McNellis, J. Meyer, J. Gale, D. Jochym       |
 | J. Aarons, B. Walker, R. Gillen, D. Jones       |
 | T. Green, I. J. Bush, C. J. Armstrong,          |
 | E. J. Higgins, E. L. Brown, M. S. McFly,        |
 | J. Wilkins, B-C. Shih, P. J. P. Byrne,          |
 | R. J. Maurer, J. C. Womack, J. Dziedzic,        |
 | A. Bartok-Partay, L. LeBlanc                    |
 |                                                 |
 | Copyright (c) 2000 - 2021                       |
 |                                                 |
 |     Distributed under license from Cambridge    |
 |     Enterprise for academic use only.           |
 |                                                 |
 | Please cite                                     |
 |                                                 |
 |     "First principles methods using CASTEP"     |
 |                                                 |
 |         Zeitschrift fuer Kristallographie       |
 |           220(5-6) pp. 567-570 (2005)           |
 |                                                 |
 | S. J. Clark, M. D. Segall, C. J. Pickard,       |
 | P. J. Hasnip, M. J. Probert, K. Refson,         |
 | M. C. Payne                                     |
 |                                                 |
 |       in all publications arising from          |
 |              your use of CASTEP                 |
 |                                                 |
 +-------------------------------------------------+
 |                                                 |
 |              http://www.castep.org              |
 |                                                 |
 +-------------------------------------------------+



 Compiled for linux_x86_64_gfortran10-XT on Wed, 02 Mar 2022 15:03:45 +0000
 from code version 7d4405a8a+  HEAD  Sat Nov 27 13:38:33 2021 +0000
 Compiler: GNU Fortran 11.2.0; Optimisation: fast
 MATHLIBS: LibSci (LAPACK version 3.6.1)
 FFT Lib : fftw3 version commercial-fftw-3.3.8-sse2-avx-avx2-avx2_128
 Fundamental constants values: CODATA 2014

 Run started: Wed, 02 Mar 2022 15:22:19 +0000

 Pseudo atomic calculation performed for O 2s2 2p4

 Converged in 13 iterations to a total energy of -430.9847 eV

 Pseudo atomic calculation performed for Al 3s2 3p1

 Converged in 14 iterations to a total energy of -53.3906 eV
 Calculation parallelised over 128 processes.
 Data is distributed by G-vector(64-way) and k-point(2-way)

 ************************************ Title ************************************
 3x3 sapphire surface benchmark (v1.1)

 ***************************** General Parameters ******************************
  
 output verbosity                               : normal  (1)
 write checkpoint data to                       : al3x3.check
 type of calculation                            : single point energy
 stress calculation                             : off
 density difference calculation                 : off
 electron localisation func (ELF) calculation   : off
 Hirshfeld analysis                             : off
 polarisation (Berry phase) analysis            : off
 molecular orbital projected DOS                : off
 deltaSCF calculation                           : off
 unlimited duration calculation
 timing information                             : on
 memory usage estimate                          : on
 write extra output files                       : on
 write final potential to formatted file        : off
 write final density to formatted file          : off
 write BibTeX reference list                    : on
 write OTFG pseudopotential files               : on
 write electrostatic potential file             : on
 write bands file                               : on
 checkpoint writing                             : both castep_bin and check files
  
 output         length unit                     : A
 output           mass unit                     : amu
 output           time unit                     : ps
 output         charge unit                     : e
 output           spin unit                     : hbar/2
 output         energy unit                     : eV
 output          force unit                     : eV/A
 output       velocity unit                     : A/ps
 output       pressure unit                     : GPa
 output     inv_length unit                     : 1/A
 output      frequency unit                     : cm-1
 output force constant unit                     : eV/A**2
 output         volume unit                     : A**3
 output   IR intensity unit                     : (D/A)**2/amu
 output         dipole unit                     : D
 output         efield unit                     : eV/A/e
 output        entropy unit                     : J/mol/K
 output    efield chi2 unit                     : pm/V
  
 wavefunctions paging                           : none
 random number generator seed                   :          1
 data distribution                              : optimal for this architecture
 optimization strategy                          : maximize speed(+++)

 *********************** Exchange-Correlation Parameters ***********************
  
 using functional                               : Perdew Wang (1991)
 relativistic treatment                         : Koelling-Harmon
 DFT+D: Semi-empirical dispersion correction    : off

 ************************* Pseudopotential Parameters **************************
  
 pseudopotential representation                 : reciprocal space
 <beta|phi> representation                      : reciprocal space
 spin-orbit coupling                            : off

 **************************** Basis Set Parameters *****************************
  
 plane wave basis set cut-off                   :   400.0000   eV
 size of standard grid                          :     1.7500
 size of   fine   gmax                          :    17.9311   1/A
 finite basis set correction                    : none

 **************************** Electronic Parameters ****************************
  
 number of  electrons                           :  1296.    
 net charge of system                           :  0.000    
 treating system as non-spin-polarized
 number of bands                                :        768

 ********************* Electronic Minimization Parameters **********************
  
 Method: Treating system as metallic with density mixing treatment of electrons,
         and number of  SD  steps               :          1
         and number of  CG  steps               :          4
  
 total energy / atom convergence tol.           : 0.1500E-01   eV
 eigen-energy convergence tolerance             : 0.1000E-05   eV
 max force / atom convergence tol.              : ignored
 convergence tolerance window                   :          3   cycles
 max. number of SCF cycles                      :         40
 smearing scheme                                : Gaussian
 smearing width                                 : 0.1000       eV
 Fermi energy convergence tolerance             : 0.2721E-13   eV
 periodic dipole correction                     : NONE

 ************************** Density Mixing Parameters **************************
  
 density-mixing scheme                          : Pulay
 max. length of mixing history                  :         20
 charge density mixing amplitude                : 0.8000    
 cut-off energy for mixing                      :  400.0       eV

 *******************************************************************************
  

                           -------------------------------
                                      Unit Cell
                           -------------------------------
        Real Lattice(A)                      Reciprocal Lattice(1/A)
    12.3642447    -7.1385000     0.0000000        0.508173808   0.000000000   0.000000000
     0.0000000    14.2770000     0.0000000        0.254086904   0.440091427   0.000000000
     0.0000000     0.0000000    27.5000000        0.000000000   0.000000000   0.228479466

                       Lattice parameters(A)       Cell Angles
                    a =     14.277000          alpha =   90.000000
                    b =     14.277000          beta  =   90.000000
                    c =     27.500000          gamma =  120.000000

                       Current cell volume =          4854.418839       A**3
                                   density =             1.134206   AMU/A**3
                                           =             1.883393     g/cm^3

                           -------------------------------
                                     Cell Contents
                           -------------------------------
                         Total number of ions in cell =  270
                      Total number of species in cell =    2
                        Max number of any one species =  162

            xxxxxxxxxxxxxxxxxxxxxxxxxxxxxxxxxxxxxxxxxxxxxxxxxxxxxxxxxxxx
            x  Element    Atom        Fractional coordinates of atoms  x
            x            Number           u          v          w      x
            x----------------------------------------------------------x
            x  O            1         0.102000   0.000000   0.645700   x 
            x  O            2         0.000000   0.102000   0.645700   x 
            x  O            3         0.231333   0.231333   0.645700   x 
            x  O            4         0.009111   0.222222   0.724433   x 
            x  O            5         0.111111   0.120222   0.724433   x 
            x  O            6         0.213111   0.324222   0.724433   x 
            x  O            7         0.120222   0.111111   0.566967   x 
            x  O            8         0.222222   0.009111   0.566967   x 
            x  O            9         0.324222   0.213111   0.566967   x 
            x  O           10         0.324222   0.111111   0.803167   x 
            x  O           11         0.222222   0.213111   0.803167   x 
            x  O           12         0.120222   0.009111   0.803167   x 
            x  O           13         0.213111   0.222222   0.960633   x 
            x  O           14         0.111111   0.324222   0.960633   x 
            x  O           15         0.009111   0.120222   0.960633   x 
            x  O           16         0.231333   0.000000   0.881900   x 
            x  O           17         0.000000   0.231333   0.881900   x 
            x  O           18         0.102000   0.102000   0.881900   x 
            x  O           19         0.102000   0.333333   0.645700   x 
            x  O           20         0.000000   0.435333   0.645700   x 
            x  O           21         0.231333   0.564667   0.645700   x 
            x  O           22         0.009111   0.555556   0.724433   x 
            x  O           23         0.111111   0.453556   0.724433   x 
            x  O           24         0.213111   0.657556   0.724433   x 
            x  O           25         0.120222   0.444444   0.566967   x 
            x  O           26         0.222222   0.342444   0.566967   x 
            x  O           27         0.324222   0.546444   0.566967   x 
            x  O           28         0.324222   0.444444   0.803167   x 
            x  O           29         0.222222   0.546444   0.803167   x 
            x  O           30         0.120222   0.342444   0.803167   x 
            x  O           31         0.213111   0.555556   0.960633   x 
            x  O           32         0.111111   0.657556   0.960633   x 
            x  O           33         0.009111   0.453556   0.960633   x 
            x  O           34         0.231333   0.333333   0.881900   x 
            x  O           35         0.000000   0.564667   0.881900   x 
            x  O           36         0.102000   0.435333   0.881900   x 
            x  O           37         0.102000   0.666667   0.645700   x 
            x  O           38         0.000000   0.768667   0.645700   x 
            x  O           39         0.231333   0.898000   0.645700   x 
            x  O           40         0.009111   0.888889   0.724433   x 
            x  O           41         0.111111   0.786889   0.724433   x 
            x  O           42         0.213111   0.990889   0.724433   x 
            x  O           43         0.120222   0.777778   0.566967   x 
            x  O           44         0.222222   0.675778   0.566967   x 
            x  O           45         0.324222   0.879778   0.566967   x 
            x  O           46         0.324222   0.777778   0.803167   x 
            x  O           47         0.222222   0.879778   0.803167   x 
            x  O           48         0.120222   0.675778   0.803167   x 
            x  O           49         0.213111   0.888889   0.960633   x 
            x  O           50         0.111111   0.990889   0.960633   x 
            x  O           51         0.009111   0.786889   0.960633   x 
            x  O           52         0.231333   0.666667   0.881900   x 
            x  O           53         0.000000   0.898000   0.881900   x 
            x  O           54         0.102000   0.768667   0.881900   x 
            x  O           55         0.435333   0.000000   0.645700   x 
            x  O           56         0.333333   0.102000   0.645700   x 
            x  O           57         0.564667   0.231333   0.645700   x 
            x  O           58         0.342444   0.222222   0.724433   x 
            x  O           59         0.444444   0.120222   0.724433   x 
            x  O           60         0.546444   0.324222   0.724433   x 
            x  O           61         0.453556   0.111111   0.566967   x 
            x  O           62         0.555556   0.009111   0.566967   x 
            x  O           63         0.657556   0.213111   0.566967   x 
            x  O           64         0.657556   0.111111   0.803167   x 
            x  O           65         0.555556   0.213111   0.803167   x 
            x  O           66         0.453556   0.009111   0.803167   x 
            x  O           67         0.546444   0.222222   0.960633   x 
            x  O           68         0.444444   0.324222   0.960633   x 
            x  O           69         0.342444   0.120222   0.960633   x 
            x  O           70         0.564667   0.000000   0.881900   x 
            x  O           71         0.333333   0.231333   0.881900   x 
            x  O           72         0.435333   0.102000   0.881900   x 
            x  O           73         0.435333   0.333333   0.645700   x 
            x  O           74         0.333333   0.435333   0.645700   x 
            x  O           75         0.564667   0.564667   0.645700   x 
            x  O           76         0.342444   0.555556   0.724433   x 
            x  O           77         0.444444   0.453556   0.724433   x 
            x  O           78         0.546444   0.657556   0.724433   x 
            x  O           79         0.453556   0.444444   0.566967   x 
            x  O           80         0.555556   0.342444   0.566967   x 
            x  O           81         0.657556   0.546444   0.566967   x 
            x  O           82         0.657556   0.444444   0.803167   x 
            x  O           83         0.555556   0.546444   0.803167   x 
            x  O           84         0.453556   0.342444   0.803167   x 
            x  O           85         0.546444   0.555556   0.960633   x 
            x  O           86         0.444444   0.657556   0.960633   x 
            x  O           87         0.342444   0.453556   0.960633   x 
            x  O           88         0.564667   0.333333   0.881900   x 
            x  O           89         0.333333   0.564667   0.881900   x 
            x  O           90         0.435333   0.435333   0.881900   x 
            x  O           91         0.435333   0.666667   0.645700   x 
            x  O           92         0.333333   0.768667   0.645700   x 
            x  O           93         0.564667   0.898000   0.645700   x 
            x  O           94         0.342444   0.888889   0.724433   x 
            x  O           95         0.444444   0.786889   0.724433   x 
            x  O           96         0.546444   0.990889   0.724433   x 
            x  O           97         0.453556   0.777778   0.566967   x 
            x  O           98         0.555556   0.675778   0.566967   x 
            x  O           99         0.657556   0.879778   0.566967   x 
            x  O          100         0.657556   0.777778   0.803167   x 
            x  O          101         0.555556   0.879778   0.803167   x 
            x  O          102         0.453556   0.675778   0.803167   x 
            x  O          103         0.546444   0.888889   0.960633   x 
            x  O          104         0.444444   0.990889   0.960633   x 
            x  O          105         0.342444   0.786889   0.960633   x 
            x  O          106         0.564667   0.666667   0.881900   x 
            x  O          107         0.333333   0.898000   0.881900   x 
            x  O          108         0.435333   0.768667   0.881900   x 
            x  O          109         0.768667   0.000000   0.645700   x 
            x  O          110         0.666667   0.102000   0.645700   x 
            x  O          111         0.898000   0.231333   0.645700   x 
            x  O          112         0.675778   0.222222   0.724433   x 
            x  O          113         0.777778   0.120222   0.724433   x 
            x  O          114         0.879778   0.324222   0.724433   x 
            x  O          115         0.786889   0.111111   0.566967   x 
            x  O          116         0.888889   0.009111   0.566967   x 
            x  O          117         0.990889   0.213111   0.566967   x 
            x  O          118         0.990889   0.111111   0.803167   x 
            x  O          119         0.888889   0.213111   0.803167   x 
            x  O          120         0.786889   0.009111   0.803167   x 
            x  O          121         0.879778   0.222222   0.960633   x 
            x  O          122         0.777778   0.324222   0.960633   x 
            x  O          123         0.675778   0.120222   0.960633   x 
            x  O          124         0.898000   0.000000   0.881900   x 
            x  O          125         0.666667   0.231333   0.881900   x 
            x  O          126         0.768667   0.102000   0.881900   x 
            x  O          127         0.768667   0.333333   0.645700   x 
            x  O          128         0.666667   0.435333   0.645700   x 
            x  O          129         0.898000   0.564667   0.645700   x 
            x  O          130         0.675778   0.555556   0.724433   x 
            x  O          131         0.777778   0.453556   0.724433   x 
            x  O          132         0.879778   0.657556   0.724433   x 
            x  O          133         0.786889   0.444444   0.566967   x 
            x  O          134         0.888889   0.342444   0.566967   x 
            x  O          135         0.990889   0.546444   0.566967   x 
            x  O          136         0.990889   0.444444   0.803167   x 
            x  O          137         0.888889   0.546444   0.803167   x 
            x  O          138         0.786889   0.342444   0.803167   x 
            x  O          139         0.879778   0.555556   0.960633   x 
            x  O          140         0.777778   0.657556   0.960633   x 
            x  O          141         0.675778   0.453556   0.960633   x 
            x  O          142         0.898000   0.333333   0.881900   x 
            x  O          143         0.666667   0.564667   0.881900   x 
            x  O          144         0.768667   0.435333   0.881900   x 
            x  O          145         0.768667   0.666667   0.645700   x 
            x  O          146         0.666667   0.768667   0.645700   x 
            x  O          147         0.898000   0.898000   0.645700   x 
            x  O          148         0.675778   0.888889   0.724433   x 
            x  O          149         0.777778   0.786889   0.724433   x 
            x  O          150         0.879778   0.990889   0.724433   x 
            x  O          151         0.786889   0.777778   0.566967   x 
            x  O          152         0.888889   0.675778   0.566967   x 
            x  O          153         0.990889   0.879778   0.566967   x 
            x  O          154         0.990889   0.777778   0.803167   x 
            x  O          155         0.888889   0.879778   0.803167   x 
            x  O          156         0.786889   0.675778   0.803167   x 
            x  O          157         0.879778   0.888889   0.960633   x 
            x  O          158         0.777778   0.990889   0.960633   x 
            x  O          159         0.675778   0.786889   0.960633   x 
            x  O          160         0.898000   0.666667   0.881900   x 
            x  O          161         0.666667   0.898000   0.881900   x 
            x  O          162         0.768667   0.768667   0.881900   x 
            x  Al           1         0.000000   0.000000   0.693885   x 
            x  Al           2         0.000000   0.000000   0.597515   x 
            x  Al           3         0.222222   0.111111   0.615151   x 
            x  Al           4         0.111111   0.222222   0.676249   x 
            x  Al           5         0.222222   0.111111   0.754982   x 
            x  Al           6         0.111111   0.222222   0.772618   x 
            x  Al           7         0.222222   0.111111   0.991182   x 
            x  Al           8         0.111111   0.222222   0.536418   x 
            x  Al           9         0.000000   0.000000   0.833715   x 
            x  Al          10         0.222222   0.111111   0.851351   x 
            x  Al          11         0.000000   0.000000   0.930085   x 
            x  Al          12         0.111111   0.222222   0.912449   x 
            x  Al          13         0.000000   0.333333   0.693885   x 
            x  Al          14         0.000000   0.333333   0.597515   x 
            x  Al          15         0.222222   0.444444   0.615151   x 
            x  Al          16         0.111111   0.555556   0.676249   x 
            x  Al          17         0.222222   0.444444   0.754982   x 
            x  Al          18         0.111111   0.555556   0.772618   x 
            x  Al          19         0.222222   0.444444   0.991182   x 
            x  Al          20         0.111111   0.555556   0.536418   x 
            x  Al          21         0.000000   0.333333   0.833715   x 
            x  Al          22         0.222222   0.444444   0.851351   x 
            x  Al          23         0.000000   0.333333   0.930085   x 
            x  Al          24         0.111111   0.555556   0.912449   x 
            x  Al          25         0.000000   0.666667   0.693885   x 
            x  Al          26         0.000000   0.666667   0.597515   x 
            x  Al          27         0.222222   0.777778   0.615151   x 
            x  Al          28         0.111111   0.888889   0.676249   x 
            x  Al          29         0.222222   0.777778   0.754982   x 
            x  Al          30         0.111111   0.888889   0.772618   x 
            x  Al          31         0.222222   0.777778   0.991182   x 
            x  Al          32         0.111111   0.888889   0.536418   x 
            x  Al          33         0.000000   0.666667   0.833715   x 
            x  Al          34         0.222222   0.777778   0.851351   x 
            x  Al          35         0.000000   0.666667   0.930085   x 
            x  Al          36         0.111111   0.888889   0.912449   x 
            x  Al          37         0.333333   0.000000   0.693885   x 
            x  Al          38         0.333333   0.000000   0.597515   x 
            x  Al          39         0.555556   0.111111   0.615151   x 
            x  Al          40         0.444444   0.222222   0.676249   x 
            x  Al          41         0.555556   0.111111   0.754982   x 
            x  Al          42         0.444444   0.222222   0.772618   x 
            x  Al          43         0.555556   0.111111   0.991182   x 
            x  Al          44         0.444444   0.222222   0.536418   x 
            x  Al          45         0.333333   0.000000   0.833715   x 
            x  Al          46         0.555556   0.111111   0.851351   x 
            x  Al          47         0.333333   0.000000   0.930085   x 
            x  Al          48         0.444444   0.222222   0.912449   x 
            x  Al          49         0.333333   0.333333   0.693885   x 
            x  Al          50         0.333333   0.333333   0.597515   x 
            x  Al          51         0.555556   0.444444   0.615151   x 
            x  Al          52         0.444444   0.555556   0.676249   x 
            x  Al          53         0.555556   0.444444   0.754982   x 
            x  Al          54         0.444444   0.555556   0.772618   x 
            x  Al          55         0.555556   0.444444   0.991182   x 
            x  Al          56         0.444444   0.555556   0.536418   x 
            x  Al          57         0.333333   0.333333   0.833715   x 
            x  Al          58         0.555556   0.444444   0.851351   x 
            x  Al          59         0.333333   0.333333   0.930085   x 
            x  Al          60         0.444444   0.555556   0.912449   x 
            x  Al          61         0.333333   0.666667   0.693885   x 
            x  Al          62         0.333333   0.666667   0.597515   x 
            x  Al          63         0.555556   0.777778   0.615151   x 
            x  Al          64         0.444444   0.888889   0.676249   x 
            x  Al          65         0.555556   0.777778   0.754982   x 
            x  Al          66         0.444444   0.888889   0.772618   x 
            x  Al          67         0.555556   0.777778   0.991182   x 
            x  Al          68         0.444444   0.888889   0.536418   x 
            x  Al          69         0.333333   0.666667   0.833715   x 
            x  Al          70         0.555556   0.777778   0.851351   x 
            x  Al          71         0.333333   0.666667   0.930085   x 
            x  Al          72         0.444444   0.888889   0.912449   x 
            x  Al          73         0.666667   0.000000   0.693885   x 
            x  Al          74         0.666667   0.000000   0.597515   x 
            x  Al          75         0.888889   0.111111   0.615151   x 
            x  Al          76         0.777778   0.222222   0.676249   x 
            x  Al          77         0.888889   0.111111   0.754982   x 
            x  Al          78         0.777778   0.222222   0.772618   x 
            x  Al          79         0.888889   0.111111   0.991182   x 
            x  Al          80         0.777778   0.222222   0.536418   x 
            x  Al          81         0.666667   0.000000   0.833715   x 
            x  Al          82         0.888889   0.111111   0.851351   x 
            x  Al          83         0.666667   0.000000   0.930085   x 
            x  Al          84         0.777778   0.222222   0.912449   x 
            x  Al          85         0.666667   0.333333   0.693885   x 
            x  Al          86         0.666667   0.333333   0.597515   x 
            x  Al          87         0.888889   0.444444   0.615151   x 
            x  Al          88         0.777778   0.555556   0.676249   x 
            x  Al          89         0.888889   0.444444   0.754982   x 
            x  Al          90         0.777778   0.555556   0.772618   x 
            x  Al          91         0.888889   0.444444   0.991182   x 
            x  Al          92         0.777778   0.555556   0.536418   x 
            x  Al          93         0.666667   0.333333   0.833715   x 
            x  Al          94         0.888889   0.444444   0.851351   x 
            x  Al          95         0.666667   0.333333   0.930085   x 
            x  Al          96         0.777778   0.555556   0.912449   x 
            x  Al          97         0.666667   0.666667   0.693885   x 
            x  Al          98         0.666667   0.666667   0.597515   x 
            x  Al          99         0.888889   0.777778   0.615151   x 
            x  Al         100         0.777778   0.888889   0.676249   x 
            x  Al         101         0.888889   0.777778   0.754982   x 
            x  Al         102         0.777778   0.888889   0.772618   x 
            x  Al         103         0.888889   0.777778   0.991182   x 
            x  Al         104         0.777778   0.888889   0.536418   x 
            x  Al         105         0.666667   0.666667   0.833715   x 
            x  Al         106         0.888889   0.777778   0.851351   x 
            x  Al         107         0.666667   0.666667   0.930085   x 
            x  Al         108         0.777778   0.888889   0.912449   x 
            xxxxxxxxxxxxxxxxxxxxxxxxxxxxxxxxxxxxxxxxxxxxxxxxxxxxxxxxxxxx


                         No user defined ionic velocities

                           -------------------------------
                                   Details of Species
                           -------------------------------

                               Mass of species in AMU
                                    O   15.9994000
                                    Al   26.9815400

                          Electric Quadrupole Moment (Barn)
                                    O   -0.0255800 Isotope 17
                                    Al    0.1466000 Isotope 27

                          Files used for pseudopotentials:
                                    O O_00.usp
                                    Al Al_00.usp

                           -------------------------------
                              k-Points For BZ Sampling
                           -------------------------------
                       MP grid size for SCF calculation is  2  2  1
                            with an offset of   0.000  0.000  0.000
                       Number of kpoints used =             2

                           -------------------------------
                               Symmetry and Constraints
                           -------------------------------

                      Cell is a supercell containing 9 primitive cells
                      Maximum deviation from symmetry =  0.00000         ANG

                      Number of symmetry operations   =           1
                      Number of ionic constraints     =           3
                      Point group of crystal =     1: C1, 1, 1
                      Space group of crystal =   147: P-3, -P 3

             Set iprint > 1 for details on symmetry rotations/translations

                         Centre of mass is constrained
             Set iprint > 1 for details of linear ionic constraints

                         Number of cell constraints= 0
                         Cell constraints are:  1 2 3 4 5 6

                         External pressure/stress (GPa)
                          0.00000   0.00000   0.00000
                                    0.00000   0.00000
                                              0.00000
  
+---------------- MEMORY AND SCRATCH DISK ESTIMATES PER PROCESS --------------+
|                                                     Memory          Disk    |
| Baseline code, static data and system overhead      730.0 MB         0.0 MB |
| BLAS internal memory storage                          0.0 MB         0.0 MB |
| Model and support data                              115.9 MB         0.0 MB |
| Electronic energy minimisation requirements          81.0 MB         0.0 MB |
| Force calculation requirements                        3.3 MB         0.0 MB |
|                                               ----------------------------- |
| Approx. total storage required per process          926.9 MB         0.0 MB |
|                                                                             |
| Requirements will fluctuate during execution and may exceed these estimates |
+-----------------------------------------------------------------------------+
Calculating approximate eigenstates for fixed initial Hamiltonian
Cut-off for approx. calculation is  155.625 eV
Improving approx. states at cut-off of  200.000 eV
Resetting cut-off to  400.000 eV
Calculating total energy with cut-off of  400.000 eV.
------------------------------------------------------------------------ <-- SCF
SCF loop      Energy           Fermi           Energy gain       Timer   <-- SCF
                               energy          per atom          (sec)   <-- SCF
------------------------------------------------------------------------ <-- SCF
Initial  -7.61262250E+004  0.00000000E+000                       213.90  <-- SCF
      1  -7.79035268E+004  1.71445944E+000   6.58259931E+000     237.59  <-- SCF
      2  -7.79104234E+004  1.71924238E+000   2.55428264E-002     262.25  <-- SCF
      3  -7.78188298E+004  1.84815156E+000  -3.39235545E-001     288.55  <-- SCF
      4  -7.77199042E+004  1.30434486E+000  -3.66391218E-001     316.23  <-- SCF
      5  -7.77148462E+004  1.11487590E+000  -1.87332752E-002     344.53  <-- SCF
      6  -7.77125653E+004  1.04424816E+000  -8.44756286E-003     372.85  <-- SCF
      7  -7.77102389E+004  1.02666842E+000  -8.61629279E-003     399.42  <-- SCF
      8  -7.77081457E+004  9.90607335E-001  -7.75258066E-003     427.29  <-- SCF
      9  -7.77060029E+004  1.09933439E+000  -7.93656964E-003     454.70  <-- SCF
     10  -7.77051703E+004  1.16176288E+000  -3.08373334E-003     480.69  <-- SCF
------------------------------------------------------------------------ <-- SCF
 
Final energy, E             =  -77705.17026689     eV
Final free energy (E-TS)    =  -77705.17026689     eV
(energies not corrected for finite basis set)
 
NB est. 0K energy (E-0.5TS)      =  -77705.17026689     eV
 

Writing analysis data to al3x3.castep_bin

Writing model to al3x3.check

 ************************** Forces **************************
 *                                                          *
 *               Cartesian components (eV/A)                *
 * -------------------------------------------------------- *
 *                         x            y            z      *
 *                                                          *
 * O               1      0.16834      0.02125      0.72247 *
 * O               2     -0.10299      0.12968      0.71847 *
 * O               3     -0.06230     -0.15234      0.72533 *
 * O               4     -0.10787      0.03205      0.30152 *
 * O               5      0.01938     -0.10962      0.30322 *
 * O               6      0.08892      0.07456      0.30218 *
 * O               7     -1.64513      1.74406     -1.02037 *
 * O               8     -0.68446     -2.29155     -1.03034 *
 * O               9      2.34537      0.55377     -1.02299 *
 * O              10      0.09016     -0.02690     -0.30886 *
 * O              11     -0.01800      0.09076     -0.31357 *
 * O              12     -0.06980     -0.06416     -0.30937 *
 * O              13      1.62754     -1.73506      0.97743 *
 * O              14      0.69570      2.28424      0.98112 *
 * O              15     -2.33621     -0.54362      0.97582 *
 * O              16     -0.17588     -0.01388     -0.67486 *
 * O              17      0.09691     -0.14424     -0.66902 *
 * O              18      0.07690      0.15438     -0.67309 *
 * O              19      0.17089      0.02229      0.72132 *
 * O              20     -0.10412      0.13113      0.71880 *
 * O              21     -0.06449     -0.15431      0.72081 *
 * O              22     -0.10641      0.03236      0.30152 *
 * O              23      0.01958     -0.10942      0.30427 *
 * O              24      0.08934      0.07441      0.30138 *
 * O              25     -1.63900      1.73716     -1.02022 *
 * O              26     -0.67445     -2.26534     -1.03707 *
 * O              27      2.32063      0.54985     -1.02585 *
 * O              28      0.09211     -0.02658     -0.30917 *
 * O              29     -0.01907      0.09151     -0.31175 *
 * O              30     -0.06985     -0.06458     -0.30903 *
 * O              31      1.62794     -1.73858      0.97963 *
 * O              32      0.69851      2.29375      0.97196 *
 * O              33     -2.34302     -0.54563      0.97041 *
 * O              34     -0.17819     -0.01337     -0.67358 *
 * O              35      0.09726     -0.14312     -0.67032 *
 * O              36      0.07797      0.15358     -0.67028 *
 * O              37      0.17042      0.02132      0.72264 *
 * O              38     -0.10173      0.13160      0.71735 *
 * O              39     -0.06263     -0.15653      0.72219 *
 * O              40     -0.10797      0.03237      0.30110 *
 * O              41      0.01876     -0.10988      0.30411 *
 * O              42      0.09067      0.07508      0.30220 *
 * O              43     -1.63311      1.72884     -1.02383 *
 * O              44     -0.67704     -2.26863     -1.03499 *
 * O              45      2.30735      0.54859     -1.03650 *
 * O              46      0.09148     -0.02550     -0.30981 *
 * O              47     -0.01774      0.09175     -0.31186 *
 * O              48     -0.07028     -0.06419     -0.30997 *
 * O              49      1.63608     -1.75047      0.96782 *
 * O              50      0.69799      2.29786      0.97078 *
 * O              51     -2.31828     -0.54285      0.98216 *
 * O              52     -0.17652     -0.01138     -0.67151 *
 * O              53      0.09630     -0.14474     -0.66915 *
 * O              54      0.07668      0.15475     -0.67058 *
 * O              55      0.16775      0.02222      0.72364 *
 * O              56     -0.10236      0.13041      0.72054 *
 * O              57     -0.06271     -0.15556      0.72050 *
 * O              58     -0.10623      0.03369      0.30250 *
 * O              59      0.01853     -0.11121      0.30439 *
 * O              60      0.08956      0.07614      0.30120 *
 * O              61     -1.63286      1.73287     -1.02815 *
 * O              62     -0.69044     -2.29868     -1.02377 *
 * O              63      2.29820      0.54528     -1.03776 *
 * O              64      0.09064     -0.02663     -0.30914 *
 * O              65     -0.01741      0.09058     -0.31294 *
 * O              66     -0.07096     -0.06348     -0.30909 *
 * O              67      1.62947     -1.73749      0.97256 *
 * O              68      0.68728      2.26399      0.98430 *
 * O              69     -2.31977     -0.53857      0.97364 *
 * O              70     -0.17789     -0.01143     -0.67496 *
 * O              71      0.09973     -0.14483     -0.66619 *
 * O              72      0.07586      0.15603     -0.67064 *
 * O              73      0.17051      0.02064      0.72419 *
 * O              74     -0.10434      0.12942      0.71993 *
 * O              75     -0.06485     -0.15494      0.72211 *
 * O              76     -0.10688      0.03219      0.30125 *
 * O              77      0.01789     -0.10984      0.30346 *
 * O              78      0.08996      0.07507      0.30126 *
 * O              79     -1.64268      1.74088     -1.02055 *
 * O              80     -0.68021     -2.27281     -1.03883 *
 * O              81      2.33319      0.55168     -1.02623 *
 * O              82      0.09114     -0.02817     -0.31046 *
 * O              83     -0.01871      0.09207     -0.31115 *
 * O              84     -0.07035     -0.06431     -0.30952 *
 * O              85      1.63620     -1.74271      0.97360 *
 * O              86      0.69293      2.27079      0.98167 *
 * O              87     -2.35164     -0.54128      0.96404 *
 * O              88     -0.18100     -0.01224     -0.67217 *
 * O              89      0.09595     -0.14362     -0.66864 *
 * O              90      0.07745      0.15414     -0.67276 *
 * O              91      0.17096      0.02123      0.72350 *
 * O              92     -0.10525      0.13210      0.71800 *
 * O              93     -0.06268     -0.15729      0.72336 *
 * O              94     -0.10829      0.03169      0.30176 *
 * O              95      0.01778     -0.11010      0.30469 *
 * O              96      0.09097      0.07537      0.30292 *
 * O              97     -1.64324      1.74717     -1.01810 *
 * O              98     -0.67186     -2.26640     -1.04123 *
 * O              99      2.31692      0.54999     -1.03225 *
 * O             100      0.09046     -0.02631     -0.30959 *
 * O             101     -0.01853      0.09108     -0.31150 *
 * O             102     -0.07035     -0.06332     -0.30915 *
 * O             103      1.64385     -1.76042      0.96167 *
 * O             104      0.69018      2.27284      0.98217 *
 * O             105     -2.31571     -0.53948      0.98159 *
 * O             106     -0.17799     -0.01160     -0.67376 *
 * O             107      0.09815     -0.14496     -0.66765 *
 * O             108      0.07687      0.15419     -0.67110 *
 * O             109      0.16934      0.02060      0.72562 *
 * O             110     -0.10308      0.13369      0.72205 *
 * O             111     -0.06319     -0.15443      0.72285 *
 * O             112     -0.10698      0.03305      0.30188 *
 * O             113      0.01930     -0.11011      0.30346 *
 * O             114      0.08873      0.07551      0.30182 *
 * O             115     -1.64864      1.74769     -1.01843 *
 * O             116     -0.67775     -2.27883     -1.03761 *
 * O             117      2.32475      0.54977     -1.02730 *
 * O             118      0.09102     -0.02701     -0.30963 *
 * O             119     -0.01788      0.09135     -0.31311 *
 * O             120     -0.06915     -0.06375     -0.30848 *
 * O             121      1.63249     -1.73843      0.97478 *
 * O             122      0.68524      2.26536      0.98357 *
 * O             123     -2.33950     -0.54623      0.96879 *
 * O             124     -0.17734     -0.01288     -0.67381 *
 * O             125      0.09911     -0.14375     -0.66913 *
 * O             126      0.07851      0.15337     -0.66967 *
 * O             127      0.16950      0.02091      0.72192 *
 * O             128     -0.10325      0.12920      0.71721 *
 * O             129     -0.06437     -0.15544      0.72335 *
 * O             130     -0.10762      0.03269      0.30300 *
 * O             131      0.01895     -0.10984      0.30368 *
 * O             132      0.08959      0.07556      0.30042 *
 * O             133     -1.63849      1.73925     -1.02521 *
 * O             134     -0.67570     -2.26950     -1.03867 *
 * O             135      2.33448      0.55321     -1.02646 *
 * O             136      0.09083     -0.02657     -0.31101 *
 * O             137     -0.01748      0.09064     -0.31297 *
 * O             138     -0.07129     -0.06457     -0.30862 *
 * O             139      1.63004     -1.73526      0.97921 *
 * O             140      0.69788      2.29431      0.97535 *
 * O             141     -2.35438     -0.54473      0.96317 *
 * O             142     -0.17718     -0.01106     -0.67097 *
 * O             143      0.09696     -0.14340     -0.67195 *
 * O             144      0.07942      0.15142     -0.67133 *
 * O             145      0.17048      0.02104      0.72456 *
 * O             146     -0.10356      0.13104      0.71758 *
 * O             147     -0.06143     -0.15509      0.71859 *
 * O             148     -0.10839      0.03333      0.30123 *
 * O             149      0.01700     -0.10943      0.30450 *
 * O             150      0.09041      0.07277      0.30213 *
 * O             151     -1.64149      1.74338     -1.01798 *
 * O             152     -0.68185     -2.28092     -1.03302 *
 * O             153      2.30046      0.54755     -1.03698 *
 * O             154      0.09104     -0.02595     -0.30857 *
 * O             155     -0.01660      0.09148     -0.31272 *
 * O             156     -0.06963     -0.06465     -0.30871 *
 * O             157      1.63277     -1.74052      0.97611 *
 * O             158      0.69539      2.29120      0.97784 *
 * O             159     -2.33412     -0.53984      0.97709 *
 * O             160     -0.17703     -0.01156     -0.67070 *
 * O             161      0.09830     -0.14439     -0.67272 *
 * O             162      0.07703      0.15336     -0.67223 *
 * Al              1      0.00029     -0.00053     -0.04543 *
 * Al              2     -0.00702     -0.00665     -0.86086 *
 * Al              3     -0.00085     -0.00387     -1.95228 *
 * Al              4      0.00063     -0.00049     -0.25315 *
 * Al              5      0.00019     -0.00079     -0.07877 *
 * Al              6      0.00072     -0.00019      0.08116 *
 * Al              7      0.00500      0.00439     -7.33359 *
 * Al              8      0.01066      0.01049      7.33377 *
 * Al              9      0.00066     -0.00042      0.05106 *
 * Al             10      0.00051     -0.00065      0.27287 *
 * Al             11     -0.00393     -0.00243      0.85784 *
 * Al             12      0.00370      0.00024      1.96589 *
 * Al             13      0.00034     -0.00079     -0.04530 *
 * Al             14     -0.00646      0.00392     -0.86024 *
 * Al             15      0.00091     -0.00699     -1.96187 *
 * Al             16      0.00063     -0.00019     -0.25299 *
 * Al             17      0.00013     -0.00061     -0.07862 *
 * Al             18      0.00075     -0.00034      0.08106 *
 * Al             19     -0.00944      0.00760     -7.33217 *
 * Al             20      0.01410      0.00379      7.33238 *
 * Al             21      0.00080     -0.00065      0.05093 *
 * Al             22      0.00048     -0.00058      0.27309 *
 * Al             23     -0.00096     -0.00790      0.85788 *
 * Al             24      0.00538     -0.00038      1.96340 *
 * Al             25      0.00044     -0.00076     -0.04536 *
 * Al             26     -0.00109      0.00683     -0.85743 *
 * Al             27      0.00271     -0.00353     -1.96448 *
 * Al             28      0.00076     -0.00030     -0.25276 *
 * Al             29      0.00033     -0.00069     -0.07878 *
 * Al             30      0.00073     -0.00019      0.08095 *
 * Al             31      0.00673     -0.00399     -7.33340 *
 * Al             32     -0.00693      0.00249      7.33406 *
 * Al             33      0.00068     -0.00057      0.05068 *
 * Al             34      0.00054     -0.00069      0.27289 *
 * Al             35     -0.00353      0.00076      0.86139 *
 * Al             36     -0.00157     -0.00189      1.96386 *
 * Al             37      0.00038     -0.00071     -0.04529 *
 * Al             38      0.00243     -0.00404     -0.86075 *
 * Al             39      0.00281      0.00357     -1.96075 *
 * Al             40      0.00057     -0.00036     -0.25321 *
 * Al             41      0.00032     -0.00067     -0.07874 *
 * Al             42      0.00071     -0.00040      0.08100 *
 * Al             43     -0.01068      0.00165     -7.33348 *
 * Al             44      0.01532     -0.00245      7.33274 *
 * Al             45      0.00059     -0.00043      0.05087 *
 * Al             46      0.00055     -0.00064      0.27285 *
 * Al             47      0.00675     -0.00090      0.86162 *
 * Al             48      0.00075      0.00356      1.97172 *
 * Al             49      0.00044     -0.00064     -0.04553 *
 * Al             50     -0.00971      0.01122     -0.85683 *
 * Al             51      0.00091     -0.00634     -1.95776 *
 * Al             52      0.00059     -0.00033     -0.25303 *
 * Al             53      0.00023     -0.00069     -0.07883 *
 * Al             54      0.00079     -0.00032      0.08099 *
 * Al             55     -0.01849     -0.00030     -7.33277 *
 * Al             56      0.01090      0.01051      7.33348 *
 * Al             57      0.00042     -0.00048      0.05099 *
 * Al             58      0.00052     -0.00043      0.27296 *
 * Al             59      0.00355     -0.01511      0.86082 *
 * Al             60      0.00496      0.00627      1.96478 *
 * Al             61      0.00056     -0.00062     -0.04539 *
 * Al             62     -0.00971      0.00288     -0.85863 *
 * Al             63      0.00387     -0.00700     -1.96123 *
 * Al             64      0.00057     -0.00030     -0.25292 *
 * Al             65      0.00019     -0.00062     -0.07881 *
 * Al             66      0.00058     -0.00046      0.08094 *
 * Al             67     -0.00831     -0.01073     -7.33292 *
 * Al             68     -0.00753      0.00546      7.33148 *
 * Al             69      0.00064     -0.00057      0.05075 *
 * Al             70      0.00059     -0.00061      0.27313 *
 * Al             71      0.00330     -0.00177      0.86567 *
 * Al             72     -0.00475      0.00318      1.96702 *
 * Al             73      0.00047     -0.00049     -0.04557 *
 * Al             74     -0.00328     -0.00682     -0.85374 *
 * Al             75      0.00410     -0.00536     -1.95610 *
 * Al             76      0.00050     -0.00061     -0.25308 *
 * Al             77      0.00037     -0.00072     -0.07879 *
 * Al             78      0.00069     -0.00034      0.08104 *
 * Al             79     -0.00211      0.00365     -7.33326 *
 * Al             80     -0.00003      0.01669      7.33391 *
 * Al             81      0.00062     -0.00059      0.05110 *
 * Al             82      0.00060     -0.00063      0.27325 *
 * Al             83      0.00553     -0.00332      0.85442 *
 * Al             84      0.00407      0.00606      1.96820 *
 * Al             85      0.00041     -0.00058     -0.04528 *
 * Al             86     -0.00590     -0.00366     -0.86277 *
 * Al             87     -0.00129     -0.00659     -1.95887 *
 * Al             88      0.00067     -0.00024     -0.25307 *
 * Al             89      0.00018     -0.00073     -0.07878 *
 * Al             90      0.00077     -0.00042      0.08103 *
 * Al             91     -0.01515      0.00043     -7.33485 *
 * Al             92      0.00800      0.00162      7.33217 *
 * Al             93      0.00063     -0.00039      0.05078 *
 * Al             94      0.00061     -0.00058      0.27279 *
 * Al             95      0.00504     -0.01705      0.86030 *
 * Al             96      0.00710      0.00143      1.96171 *
 * Al             97      0.00062     -0.00059     -0.04543 *
 * Al             98     -0.00986      0.00685     -0.85917 *
 * Al             99      0.00550     -0.00158     -1.96162 *
 * Al            100      0.00070     -0.00033     -0.25294 *
 * Al            101      0.00017     -0.00069     -0.07886 *
 * Al            102      0.00067     -0.00042      0.08084 *
 * Al            103      0.00357      0.00174     -7.33453 *
 * Al            104      0.00300      0.00727      7.33306 *
 * Al            105      0.00046     -0.00046      0.05100 *
 * Al            106      0.00047     -0.00054      0.27297 *
 * Al            107     -0.00089     -0.00307      0.85795 *
 * Al            108      0.00286      0.00019      1.96462 *
 *                                                          *
 ************************************************************

Writing analysis data to al3x3.castep_bin

Writing model to al3x3.check
 
 A BibTeX formatted list of references used in this run has been written to 
 al3x3.bib
 
Initialisation time =      3.31 s
Calculation time    =    504.89 s
Finalisation time   =      6.16 s
Total time          =    514.36 s
Peak Memory Use     = 1485388 kB
  
Overall parallel efficiency rating: Good (77%)                                  
  
Data was distributed by:-
G-vector (64-way); efficiency rating: Good (77%)                                
k-point (2-way); efficiency rating: Excellent (99%)                             
  
Parallel notes:
1) Calculation only took 508.3 s, so efficiency estimates may be inaccurate.    
