 +-------------------------------------------------+
 |                                                 |
 |      CCC   AA    SSS  TTTTT  EEEEE  PPPP        |
 |     C     A  A  S       T    E      P   P       |
 |     C     AAAA   SS     T    EEE    PPPP        |
 |     C     A  A     S    T    E      P           |
 |      CCC  A  A  SSS     T    EEEEE  P           |
 |                                                 |
 +-------------------------------------------------+
 |                                                 |
 | Welcome to Academic Release CASTEP version 21.11|          
 | Ab Initio Total Energy Program                  |
 |                                                 |
 | Authors:                                        |
 | M. Segall, M. Probert, C. Pickard, P. Hasnip,   |
 | S. Clark, K. Refson, J. R. Yates, M. Payne      |
 |                                                 |
 | Contributors:                                   |
 | P. Lindan, P. Haynes, J. White, V. Milman,      |
 | N. Govind, M. Gibson, P. Tulip, V. Cocula,      |
 | B. Montanari, D. Quigley, M. Glover,            |
 | L. Bernasconi, A. Perlov, M. Plummer,           |
 | E. McNellis, J. Meyer, J. Gale, D. Jochym       |
 | J. Aarons, B. Walker, R. Gillen, D. Jones       |
 | T. Green, I. J. Bush, C. J. Armstrong,          |
 | E. J. Higgins, E. L. Brown, M. S. McFly,        |
 | J. Wilkins, B-C. Shih, P. J. P. Byrne,          |
 | R. J. Maurer, J. C. Womack, J. Dziedzic,        |
 | A. Bartok-Partay, L. LeBlanc                    |
 |                                                 |
 | Copyright (c) 2000 - 2021                       |
 |                                                 |
 |     Distributed under license from Cambridge    |
 |     Enterprise for academic use only.           |
 |                                                 |
 | Please cite                                     |
 |                                                 |
 |     "First principles methods using CASTEP"     |
 |                                                 |
 |         Zeitschrift fuer Kristallographie       |
 |           220(5-6) pp. 567-570 (2005)           |
 |                                                 |
 | S. J. Clark, M. D. Segall, C. J. Pickard,       |
 | P. J. Hasnip, M. J. Probert, K. Refson,         |
 | M. C. Payne                                     |
 |                                                 |
 |       in all publications arising from          |
 |              your use of CASTEP                 |
 |                                                 |
 +-------------------------------------------------+
 |                                                 |
 |              http://www.castep.org              |
 |                                                 |
 +-------------------------------------------------+



 Compiled for linux_x86_64_gfortran10-XT on Wed, 02 Mar 2022 15:03:45 +0000
 from code version 7d4405a8a+  HEAD  Sat Nov 27 13:38:33 2021 +0000
 Compiler: GNU Fortran 11.2.0; Optimisation: fast
 MATHLIBS: LibSci (LAPACK version 3.6.1)
 FFT Lib : fftw3 version commercial-fftw-3.3.8-sse2-avx-avx2-avx2_128
 Fundamental constants values: CODATA 2014

 Run started: Wed, 02 Mar 2022 15:26:30 +0000

 Pseudo atomic calculation performed for O 2s2 2p4

 Converged in 13 iterations to a total energy of -430.9847 eV

 Pseudo atomic calculation performed for Al 3s2 3p1

 Converged in 14 iterations to a total energy of -53.3906 eV
 Calculation parallelised over 256 processes.
 Data is distributed by G-vector(128-way) and k-point(2-way)

 ************************************ Title ************************************
 3x3 sapphire surface benchmark (v1.1)

 ***************************** General Parameters ******************************
  
 output verbosity                               : normal  (1)
 write checkpoint data to                       : al3x3.check
 type of calculation                            : single point energy
 stress calculation                             : off
 density difference calculation                 : off
 electron localisation func (ELF) calculation   : off
 Hirshfeld analysis                             : off
 polarisation (Berry phase) analysis            : off
 molecular orbital projected DOS                : off
 deltaSCF calculation                           : off
 unlimited duration calculation
 timing information                             : on
 memory usage estimate                          : on
 write extra output files                       : on
 write final potential to formatted file        : off
 write final density to formatted file          : off
 write BibTeX reference list                    : on
 write OTFG pseudopotential files               : on
 write electrostatic potential file             : on
 write bands file                               : on
 checkpoint writing                             : both castep_bin and check files
  
 output         length unit                     : A
 output           mass unit                     : amu
 output           time unit                     : ps
 output         charge unit                     : e
 output           spin unit                     : hbar/2
 output         energy unit                     : eV
 output          force unit                     : eV/A
 output       velocity unit                     : A/ps
 output       pressure unit                     : GPa
 output     inv_length unit                     : 1/A
 output      frequency unit                     : cm-1
 output force constant unit                     : eV/A**2
 output         volume unit                     : A**3
 output   IR intensity unit                     : (D/A)**2/amu
 output         dipole unit                     : D
 output         efield unit                     : eV/A/e
 output        entropy unit                     : J/mol/K
 output    efield chi2 unit                     : pm/V
  
 wavefunctions paging                           : none
 random number generator seed                   :          1
 data distribution                              : optimal for this architecture
 optimization strategy                          : maximize speed(+++)

 *********************** Exchange-Correlation Parameters ***********************
  
 using functional                               : Perdew Wang (1991)
 relativistic treatment                         : Koelling-Harmon
 DFT+D: Semi-empirical dispersion correction    : off

 ************************* Pseudopotential Parameters **************************
  
 pseudopotential representation                 : reciprocal space
 <beta|phi> representation                      : reciprocal space
 spin-orbit coupling                            : off

 **************************** Basis Set Parameters *****************************
  
 plane wave basis set cut-off                   :   400.0000   eV
 size of standard grid                          :     1.7500
 size of   fine   gmax                          :    17.9311   1/A
 finite basis set correction                    : none

 **************************** Electronic Parameters ****************************
  
 number of  electrons                           :  1296.    
 net charge of system                           :  0.000    
 treating system as non-spin-polarized
 number of bands                                :        768

 ********************* Electronic Minimization Parameters **********************
  
 Method: Treating system as metallic with density mixing treatment of electrons,
         and number of  SD  steps               :          1
         and number of  CG  steps               :          4
  
 total energy / atom convergence tol.           : 0.1500E-01   eV
 eigen-energy convergence tolerance             : 0.1000E-05   eV
 max force / atom convergence tol.              : ignored
 convergence tolerance window                   :          3   cycles
 max. number of SCF cycles                      :         40
 smearing scheme                                : Gaussian
 smearing width                                 : 0.1000       eV
 Fermi energy convergence tolerance             : 0.2721E-13   eV
 periodic dipole correction                     : NONE

 ************************** Density Mixing Parameters **************************
  
 density-mixing scheme                          : Pulay
 max. length of mixing history                  :         20
 charge density mixing amplitude                : 0.8000    
 cut-off energy for mixing                      :  400.0       eV

 *******************************************************************************
  

                           -------------------------------
                                      Unit Cell
                           -------------------------------
        Real Lattice(A)                      Reciprocal Lattice(1/A)
    12.3642447    -7.1385000     0.0000000        0.508173808   0.000000000   0.000000000
     0.0000000    14.2770000     0.0000000        0.254086904   0.440091427   0.000000000
     0.0000000     0.0000000    27.5000000        0.000000000   0.000000000   0.228479466

                       Lattice parameters(A)       Cell Angles
                    a =     14.277000          alpha =   90.000000
                    b =     14.277000          beta  =   90.000000
                    c =     27.500000          gamma =  120.000000

                       Current cell volume =          4854.418839       A**3
                                   density =             1.134206   AMU/A**3
                                           =             1.883393     g/cm^3

                           -------------------------------
                                     Cell Contents
                           -------------------------------
                         Total number of ions in cell =  270
                      Total number of species in cell =    2
                        Max number of any one species =  162

            xxxxxxxxxxxxxxxxxxxxxxxxxxxxxxxxxxxxxxxxxxxxxxxxxxxxxxxxxxxx
            x  Element    Atom        Fractional coordinates of atoms  x
            x            Number           u          v          w      x
            x----------------------------------------------------------x
            x  O            1         0.102000   0.000000   0.645700   x 
            x  O            2         0.000000   0.102000   0.645700   x 
            x  O            3         0.231333   0.231333   0.645700   x 
            x  O            4         0.009111   0.222222   0.724433   x 
            x  O            5         0.111111   0.120222   0.724433   x 
            x  O            6         0.213111   0.324222   0.724433   x 
            x  O            7         0.120222   0.111111   0.566967   x 
            x  O            8         0.222222   0.009111   0.566967   x 
            x  O            9         0.324222   0.213111   0.566967   x 
            x  O           10         0.324222   0.111111   0.803167   x 
            x  O           11         0.222222   0.213111   0.803167   x 
            x  O           12         0.120222   0.009111   0.803167   x 
            x  O           13         0.213111   0.222222   0.960633   x 
            x  O           14         0.111111   0.324222   0.960633   x 
            x  O           15         0.009111   0.120222   0.960633   x 
            x  O           16         0.231333   0.000000   0.881900   x 
            x  O           17         0.000000   0.231333   0.881900   x 
            x  O           18         0.102000   0.102000   0.881900   x 
            x  O           19         0.102000   0.333333   0.645700   x 
            x  O           20         0.000000   0.435333   0.645700   x 
            x  O           21         0.231333   0.564667   0.645700   x 
            x  O           22         0.009111   0.555556   0.724433   x 
            x  O           23         0.111111   0.453556   0.724433   x 
            x  O           24         0.213111   0.657556   0.724433   x 
            x  O           25         0.120222   0.444444   0.566967   x 
            x  O           26         0.222222   0.342444   0.566967   x 
            x  O           27         0.324222   0.546444   0.566967   x 
            x  O           28         0.324222   0.444444   0.803167   x 
            x  O           29         0.222222   0.546444   0.803167   x 
            x  O           30         0.120222   0.342444   0.803167   x 
            x  O           31         0.213111   0.555556   0.960633   x 
            x  O           32         0.111111   0.657556   0.960633   x 
            x  O           33         0.009111   0.453556   0.960633   x 
            x  O           34         0.231333   0.333333   0.881900   x 
            x  O           35         0.000000   0.564667   0.881900   x 
            x  O           36         0.102000   0.435333   0.881900   x 
            x  O           37         0.102000   0.666667   0.645700   x 
            x  O           38         0.000000   0.768667   0.645700   x 
            x  O           39         0.231333   0.898000   0.645700   x 
            x  O           40         0.009111   0.888889   0.724433   x 
            x  O           41         0.111111   0.786889   0.724433   x 
            x  O           42         0.213111   0.990889   0.724433   x 
            x  O           43         0.120222   0.777778   0.566967   x 
            x  O           44         0.222222   0.675778   0.566967   x 
            x  O           45         0.324222   0.879778   0.566967   x 
            x  O           46         0.324222   0.777778   0.803167   x 
            x  O           47         0.222222   0.879778   0.803167   x 
            x  O           48         0.120222   0.675778   0.803167   x 
            x  O           49         0.213111   0.888889   0.960633   x 
            x  O           50         0.111111   0.990889   0.960633   x 
            x  O           51         0.009111   0.786889   0.960633   x 
            x  O           52         0.231333   0.666667   0.881900   x 
            x  O           53         0.000000   0.898000   0.881900   x 
            x  O           54         0.102000   0.768667   0.881900   x 
            x  O           55         0.435333   0.000000   0.645700   x 
            x  O           56         0.333333   0.102000   0.645700   x 
            x  O           57         0.564667   0.231333   0.645700   x 
            x  O           58         0.342444   0.222222   0.724433   x 
            x  O           59         0.444444   0.120222   0.724433   x 
            x  O           60         0.546444   0.324222   0.724433   x 
            x  O           61         0.453556   0.111111   0.566967   x 
            x  O           62         0.555556   0.009111   0.566967   x 
            x  O           63         0.657556   0.213111   0.566967   x 
            x  O           64         0.657556   0.111111   0.803167   x 
            x  O           65         0.555556   0.213111   0.803167   x 
            x  O           66         0.453556   0.009111   0.803167   x 
            x  O           67         0.546444   0.222222   0.960633   x 
            x  O           68         0.444444   0.324222   0.960633   x 
            x  O           69         0.342444   0.120222   0.960633   x 
            x  O           70         0.564667   0.000000   0.881900   x 
            x  O           71         0.333333   0.231333   0.881900   x 
            x  O           72         0.435333   0.102000   0.881900   x 
            x  O           73         0.435333   0.333333   0.645700   x 
            x  O           74         0.333333   0.435333   0.645700   x 
            x  O           75         0.564667   0.564667   0.645700   x 
            x  O           76         0.342444   0.555556   0.724433   x 
            x  O           77         0.444444   0.453556   0.724433   x 
            x  O           78         0.546444   0.657556   0.724433   x 
            x  O           79         0.453556   0.444444   0.566967   x 
            x  O           80         0.555556   0.342444   0.566967   x 
            x  O           81         0.657556   0.546444   0.566967   x 
            x  O           82         0.657556   0.444444   0.803167   x 
            x  O           83         0.555556   0.546444   0.803167   x 
            x  O           84         0.453556   0.342444   0.803167   x 
            x  O           85         0.546444   0.555556   0.960633   x 
            x  O           86         0.444444   0.657556   0.960633   x 
            x  O           87         0.342444   0.453556   0.960633   x 
            x  O           88         0.564667   0.333333   0.881900   x 
            x  O           89         0.333333   0.564667   0.881900   x 
            x  O           90         0.435333   0.435333   0.881900   x 
            x  O           91         0.435333   0.666667   0.645700   x 
            x  O           92         0.333333   0.768667   0.645700   x 
            x  O           93         0.564667   0.898000   0.645700   x 
            x  O           94         0.342444   0.888889   0.724433   x 
            x  O           95         0.444444   0.786889   0.724433   x 
            x  O           96         0.546444   0.990889   0.724433   x 
            x  O           97         0.453556   0.777778   0.566967   x 
            x  O           98         0.555556   0.675778   0.566967   x 
            x  O           99         0.657556   0.879778   0.566967   x 
            x  O          100         0.657556   0.777778   0.803167   x 
            x  O          101         0.555556   0.879778   0.803167   x 
            x  O          102         0.453556   0.675778   0.803167   x 
            x  O          103         0.546444   0.888889   0.960633   x 
            x  O          104         0.444444   0.990889   0.960633   x 
            x  O          105         0.342444   0.786889   0.960633   x 
            x  O          106         0.564667   0.666667   0.881900   x 
            x  O          107         0.333333   0.898000   0.881900   x 
            x  O          108         0.435333   0.768667   0.881900   x 
            x  O          109         0.768667   0.000000   0.645700   x 
            x  O          110         0.666667   0.102000   0.645700   x 
            x  O          111         0.898000   0.231333   0.645700   x 
            x  O          112         0.675778   0.222222   0.724433   x 
            x  O          113         0.777778   0.120222   0.724433   x 
            x  O          114         0.879778   0.324222   0.724433   x 
            x  O          115         0.786889   0.111111   0.566967   x 
            x  O          116         0.888889   0.009111   0.566967   x 
            x  O          117         0.990889   0.213111   0.566967   x 
            x  O          118         0.990889   0.111111   0.803167   x 
            x  O          119         0.888889   0.213111   0.803167   x 
            x  O          120         0.786889   0.009111   0.803167   x 
            x  O          121         0.879778   0.222222   0.960633   x 
            x  O          122         0.777778   0.324222   0.960633   x 
            x  O          123         0.675778   0.120222   0.960633   x 
            x  O          124         0.898000   0.000000   0.881900   x 
            x  O          125         0.666667   0.231333   0.881900   x 
            x  O          126         0.768667   0.102000   0.881900   x 
            x  O          127         0.768667   0.333333   0.645700   x 
            x  O          128         0.666667   0.435333   0.645700   x 
            x  O          129         0.898000   0.564667   0.645700   x 
            x  O          130         0.675778   0.555556   0.724433   x 
            x  O          131         0.777778   0.453556   0.724433   x 
            x  O          132         0.879778   0.657556   0.724433   x 
            x  O          133         0.786889   0.444444   0.566967   x 
            x  O          134         0.888889   0.342444   0.566967   x 
            x  O          135         0.990889   0.546444   0.566967   x 
            x  O          136         0.990889   0.444444   0.803167   x 
            x  O          137         0.888889   0.546444   0.803167   x 
            x  O          138         0.786889   0.342444   0.803167   x 
            x  O          139         0.879778   0.555556   0.960633   x 
            x  O          140         0.777778   0.657556   0.960633   x 
            x  O          141         0.675778   0.453556   0.960633   x 
            x  O          142         0.898000   0.333333   0.881900   x 
            x  O          143         0.666667   0.564667   0.881900   x 
            x  O          144         0.768667   0.435333   0.881900   x 
            x  O          145         0.768667   0.666667   0.645700   x 
            x  O          146         0.666667   0.768667   0.645700   x 
            x  O          147         0.898000   0.898000   0.645700   x 
            x  O          148         0.675778   0.888889   0.724433   x 
            x  O          149         0.777778   0.786889   0.724433   x 
            x  O          150         0.879778   0.990889   0.724433   x 
            x  O          151         0.786889   0.777778   0.566967   x 
            x  O          152         0.888889   0.675778   0.566967   x 
            x  O          153         0.990889   0.879778   0.566967   x 
            x  O          154         0.990889   0.777778   0.803167   x 
            x  O          155         0.888889   0.879778   0.803167   x 
            x  O          156         0.786889   0.675778   0.803167   x 
            x  O          157         0.879778   0.888889   0.960633   x 
            x  O          158         0.777778   0.990889   0.960633   x 
            x  O          159         0.675778   0.786889   0.960633   x 
            x  O          160         0.898000   0.666667   0.881900   x 
            x  O          161         0.666667   0.898000   0.881900   x 
            x  O          162         0.768667   0.768667   0.881900   x 
            x  Al           1         0.000000   0.000000   0.693885   x 
            x  Al           2         0.000000   0.000000   0.597515   x 
            x  Al           3         0.222222   0.111111   0.615151   x 
            x  Al           4         0.111111   0.222222   0.676249   x 
            x  Al           5         0.222222   0.111111   0.754982   x 
            x  Al           6         0.111111   0.222222   0.772618   x 
            x  Al           7         0.222222   0.111111   0.991182   x 
            x  Al           8         0.111111   0.222222   0.536418   x 
            x  Al           9         0.000000   0.000000   0.833715   x 
            x  Al          10         0.222222   0.111111   0.851351   x 
            x  Al          11         0.000000   0.000000   0.930085   x 
            x  Al          12         0.111111   0.222222   0.912449   x 
            x  Al          13         0.000000   0.333333   0.693885   x 
            x  Al          14         0.000000   0.333333   0.597515   x 
            x  Al          15         0.222222   0.444444   0.615151   x 
            x  Al          16         0.111111   0.555556   0.676249   x 
            x  Al          17         0.222222   0.444444   0.754982   x 
            x  Al          18         0.111111   0.555556   0.772618   x 
            x  Al          19         0.222222   0.444444   0.991182   x 
            x  Al          20         0.111111   0.555556   0.536418   x 
            x  Al          21         0.000000   0.333333   0.833715   x 
            x  Al          22         0.222222   0.444444   0.851351   x 
            x  Al          23         0.000000   0.333333   0.930085   x 
            x  Al          24         0.111111   0.555556   0.912449   x 
            x  Al          25         0.000000   0.666667   0.693885   x 
            x  Al          26         0.000000   0.666667   0.597515   x 
            x  Al          27         0.222222   0.777778   0.615151   x 
            x  Al          28         0.111111   0.888889   0.676249   x 
            x  Al          29         0.222222   0.777778   0.754982   x 
            x  Al          30         0.111111   0.888889   0.772618   x 
            x  Al          31         0.222222   0.777778   0.991182   x 
            x  Al          32         0.111111   0.888889   0.536418   x 
            x  Al          33         0.000000   0.666667   0.833715   x 
            x  Al          34         0.222222   0.777778   0.851351   x 
            x  Al          35         0.000000   0.666667   0.930085   x 
            x  Al          36         0.111111   0.888889   0.912449   x 
            x  Al          37         0.333333   0.000000   0.693885   x 
            x  Al          38         0.333333   0.000000   0.597515   x 
            x  Al          39         0.555556   0.111111   0.615151   x 
            x  Al          40         0.444444   0.222222   0.676249   x 
            x  Al          41         0.555556   0.111111   0.754982   x 
            x  Al          42         0.444444   0.222222   0.772618   x 
            x  Al          43         0.555556   0.111111   0.991182   x 
            x  Al          44         0.444444   0.222222   0.536418   x 
            x  Al          45         0.333333   0.000000   0.833715   x 
            x  Al          46         0.555556   0.111111   0.851351   x 
            x  Al          47         0.333333   0.000000   0.930085   x 
            x  Al          48         0.444444   0.222222   0.912449   x 
            x  Al          49         0.333333   0.333333   0.693885   x 
            x  Al          50         0.333333   0.333333   0.597515   x 
            x  Al          51         0.555556   0.444444   0.615151   x 
            x  Al          52         0.444444   0.555556   0.676249   x 
            x  Al          53         0.555556   0.444444   0.754982   x 
            x  Al          54         0.444444   0.555556   0.772618   x 
            x  Al          55         0.555556   0.444444   0.991182   x 
            x  Al          56         0.444444   0.555556   0.536418   x 
            x  Al          57         0.333333   0.333333   0.833715   x 
            x  Al          58         0.555556   0.444444   0.851351   x 
            x  Al          59         0.333333   0.333333   0.930085   x 
            x  Al          60         0.444444   0.555556   0.912449   x 
            x  Al          61         0.333333   0.666667   0.693885   x 
            x  Al          62         0.333333   0.666667   0.597515   x 
            x  Al          63         0.555556   0.777778   0.615151   x 
            x  Al          64         0.444444   0.888889   0.676249   x 
            x  Al          65         0.555556   0.777778   0.754982   x 
            x  Al          66         0.444444   0.888889   0.772618   x 
            x  Al          67         0.555556   0.777778   0.991182   x 
            x  Al          68         0.444444   0.888889   0.536418   x 
            x  Al          69         0.333333   0.666667   0.833715   x 
            x  Al          70         0.555556   0.777778   0.851351   x 
            x  Al          71         0.333333   0.666667   0.930085   x 
            x  Al          72         0.444444   0.888889   0.912449   x 
            x  Al          73         0.666667   0.000000   0.693885   x 
            x  Al          74         0.666667   0.000000   0.597515   x 
            x  Al          75         0.888889   0.111111   0.615151   x 
            x  Al          76         0.777778   0.222222   0.676249   x 
            x  Al          77         0.888889   0.111111   0.754982   x 
            x  Al          78         0.777778   0.222222   0.772618   x 
            x  Al          79         0.888889   0.111111   0.991182   x 
            x  Al          80         0.777778   0.222222   0.536418   x 
            x  Al          81         0.666667   0.000000   0.833715   x 
            x  Al          82         0.888889   0.111111   0.851351   x 
            x  Al          83         0.666667   0.000000   0.930085   x 
            x  Al          84         0.777778   0.222222   0.912449   x 
            x  Al          85         0.666667   0.333333   0.693885   x 
            x  Al          86         0.666667   0.333333   0.597515   x 
            x  Al          87         0.888889   0.444444   0.615151   x 
            x  Al          88         0.777778   0.555556   0.676249   x 
            x  Al          89         0.888889   0.444444   0.754982   x 
            x  Al          90         0.777778   0.555556   0.772618   x 
            x  Al          91         0.888889   0.444444   0.991182   x 
            x  Al          92         0.777778   0.555556   0.536418   x 
            x  Al          93         0.666667   0.333333   0.833715   x 
            x  Al          94         0.888889   0.444444   0.851351   x 
            x  Al          95         0.666667   0.333333   0.930085   x 
            x  Al          96         0.777778   0.555556   0.912449   x 
            x  Al          97         0.666667   0.666667   0.693885   x 
            x  Al          98         0.666667   0.666667   0.597515   x 
            x  Al          99         0.888889   0.777778   0.615151   x 
            x  Al         100         0.777778   0.888889   0.676249   x 
            x  Al         101         0.888889   0.777778   0.754982   x 
            x  Al         102         0.777778   0.888889   0.772618   x 
            x  Al         103         0.888889   0.777778   0.991182   x 
            x  Al         104         0.777778   0.888889   0.536418   x 
            x  Al         105         0.666667   0.666667   0.833715   x 
            x  Al         106         0.888889   0.777778   0.851351   x 
            x  Al         107         0.666667   0.666667   0.930085   x 
            x  Al         108         0.777778   0.888889   0.912449   x 
            xxxxxxxxxxxxxxxxxxxxxxxxxxxxxxxxxxxxxxxxxxxxxxxxxxxxxxxxxxxx


                         No user defined ionic velocities

                           -------------------------------
                                   Details of Species
                           -------------------------------

                               Mass of species in AMU
                                    O   15.9994000
                                    Al   26.9815400

                          Electric Quadrupole Moment (Barn)
                                    O   -0.0255800 Isotope 17
                                    Al    0.1466000 Isotope 27

                          Files used for pseudopotentials:
                                    O O_00.usp
                                    Al Al_00.usp

                           -------------------------------
                              k-Points For BZ Sampling
                           -------------------------------
                       MP grid size for SCF calculation is  2  2  1
                            with an offset of   0.000  0.000  0.000
                       Number of kpoints used =             2

                           -------------------------------
                               Symmetry and Constraints
                           -------------------------------

                      Cell is a supercell containing 9 primitive cells
                      Maximum deviation from symmetry =  0.00000         ANG

                      Number of symmetry operations   =           1
                      Number of ionic constraints     =           3
                      Point group of crystal =     1: C1, 1, 1
                      Space group of crystal =   147: P-3, -P 3

             Set iprint > 1 for details on symmetry rotations/translations

                         Centre of mass is constrained
             Set iprint > 1 for details of linear ionic constraints

                         Number of cell constraints= 0
                         Cell constraints are:  1 2 3 4 5 6

                         External pressure/stress (GPa)
                          0.00000   0.00000   0.00000
                                    0.00000   0.00000
                                              0.00000
  
+---------------- MEMORY AND SCRATCH DISK ESTIMATES PER PROCESS --------------+
|                                                     Memory          Disk    |
| Baseline code, static data and system overhead      792.0 MB         0.0 MB |
| BLAS internal memory storage                          0.0 MB         0.0 MB |
| Model and support data                               71.6 MB         0.0 MB |
| Electronic energy minimisation requirements          45.2 MB         0.0 MB |
| Force calculation requirements                        1.7 MB         0.0 MB |
|                                               ----------------------------- |
| Approx. total storage required per process          908.8 MB         0.0 MB |
|                                                                             |
| Requirements will fluctuate during execution and may exceed these estimates |
+-----------------------------------------------------------------------------+
Calculating approximate eigenstates for fixed initial Hamiltonian
Cut-off for approx. calculation is  250.635 eV
Resetting cut-off to  400.000 eV
Calculating total energy with cut-off of  400.000 eV.
------------------------------------------------------------------------ <-- SCF
SCF loop      Energy           Fermi           Energy gain       Timer   <-- SCF
                               energy          per atom          (sec)   <-- SCF
------------------------------------------------------------------------ <-- SCF
Initial  -7.40209107E+004  0.00000000E+000                       189.17  <-- SCF
      1  -7.78765648E+004  1.89820413E+000   1.42802003E+001     205.41  <-- SCF
      2  -7.78871222E+004  1.83988559E+000   3.91013809E-002     221.80  <-- SCF
      3  -7.77990671E+004  1.73597015E+000  -3.26129886E-001     236.90  <-- SCF
      4  -7.77206170E+004  1.33542956E+000  -2.90555976E-001     253.02  <-- SCF
      5  -7.77147179E+004  1.11670531E+000  -2.18484139E-002     269.47  <-- SCF
      6  -7.77128969E+004  1.05696771E+000  -6.74448839E-003     285.82  <-- SCF
      7  -7.77098858E+004  1.03217578E+000  -1.11523006E-002     301.96  <-- SCF
      8  -7.77082780E+004  9.95848010E-001  -5.95497557E-003     318.03  <-- SCF
      9  -7.77059471E+004  1.10333000E+000  -8.63296050E-003     333.90  <-- SCF
------------------------------------------------------------------------ <-- SCF
 
Final energy, E             =  -77705.94705782     eV
Final free energy (E-TS)    =  -77705.94705782     eV
(energies not corrected for finite basis set)
 
NB est. 0K energy (E-0.5TS)      =  -77705.94705782     eV
 

Writing analysis data to al3x3.castep_bin

Writing model to al3x3.check

 ************************** Forces **************************
 *                                                          *
 *               Cartesian components (eV/A)                *
 * -------------------------------------------------------- *
 *                         x            y            z      *
 *                                                          *
 * O               1      0.15422     -0.01043      0.98430 *
 * O               2     -0.06911      0.14287      0.98551 *
 * O               3     -0.09134     -0.13045      0.98831 *
 * O               4     -0.14365      0.03789      0.31267 *
 * O               5      0.03056     -0.14495      0.31436 *
 * O               6      0.11240      0.10308      0.31635 *
 * O               7     -1.63821      1.83341     -0.73860 *
 * O               8     -0.79439     -2.33081     -0.78116 *
 * O               9      2.41199      0.50468     -0.79193 *
 * O              10      0.12964     -0.02871     -0.34641 *
 * O              11     -0.03142      0.12159     -0.34568 *
 * O              12     -0.09481     -0.09441     -0.34642 *
 * O              13      1.62538     -1.82315      0.68582 *
 * O              14      0.78871      2.32134      0.73453 *
 * O              15     -2.40121     -0.49795      0.77583 *
 * O              16     -0.16299      0.01600     -0.92676 *
 * O              17      0.06502     -0.14892     -0.93419 *
 * O              18      0.10141      0.13660     -0.93519 *
 * O              19      0.15634     -0.01538      0.98291 *
 * O              20     -0.06733      0.14568      0.98968 *
 * O              21     -0.08837     -0.12384      0.98340 *
 * O              22     -0.14356      0.03708      0.31478 *
 * O              23      0.03205     -0.14041      0.31236 *
 * O              24      0.11227      0.10258      0.31908 *
 * O              25     -1.61450      1.83698     -0.78333 *
 * O              26     -0.77580     -2.32759     -0.75439 *
 * O              27      2.39814      0.49844     -0.74698 *
 * O              28      0.12719     -0.03012     -0.34764 *
 * O              29     -0.03073      0.12527     -0.34501 *
 * O              30     -0.09258     -0.08993     -0.34484 *
 * O              31      1.63099     -1.83704      0.68476 *
 * O              32      0.78431      2.33260      0.82770 *
 * O              33     -2.39228     -0.49934      0.73828 *
 * O              34     -0.16662      0.01529     -0.92360 *
 * O              35      0.05680     -0.14683     -0.93172 *
 * O              36      0.09914      0.13369     -0.92902 *
 * O              37      0.16233     -0.01226      0.97927 *
 * O              38     -0.06535      0.14959      0.99360 *
 * O              39     -0.09083     -0.12979      0.99370 *
 * O              40     -0.14447      0.03773      0.31493 *
 * O              41      0.02981     -0.14137      0.31637 *
 * O              42      0.11224      0.09997      0.31480 *
 * O              43     -1.61789      1.81624     -0.75246 *
 * O              44     -0.77788     -2.32702     -0.69733 *
 * O              45      2.40089      0.46998     -0.81186 *
 * O              46      0.12540     -0.03439     -0.34756 *
 * O              47     -0.03080      0.12253     -0.34795 *
 * O              48     -0.09146     -0.09153     -0.34494 *
 * O              49      1.61053     -1.82017      0.68860 *
 * O              50      0.79315      2.30815      0.77428 *
 * O              51     -2.39886     -0.49969      0.71932 *
 * O              52     -0.16281      0.01670     -0.92931 *
 * O              53      0.06368     -0.15394     -0.93366 *
 * O              54      0.10160      0.13794     -0.93204 *
 * O              55      0.16185     -0.00900      0.98981 *
 * O              56     -0.06730      0.13764      0.99411 *
 * O              57     -0.09142     -0.12536      0.98666 *
 * O              58     -0.14363      0.03423      0.31071 *
 * O              59      0.03222     -0.14145      0.31522 *
 * O              60      0.10846      0.10091      0.31462 *
 * O              61     -1.61375      1.83578     -0.78278 *
 * O              62     -0.76929     -2.33201     -0.74799 *
 * O              63      2.40137      0.49895     -0.77713 *
 * O              64      0.12761     -0.03101     -0.34493 *
 * O              65     -0.03014      0.12058     -0.34678 *
 * O              66     -0.09207     -0.09061     -0.34624 *
 * O              67      1.60988     -1.83363      0.74588 *
 * O              68      0.76823      2.31573      0.72670 *
 * O              69     -2.39961     -0.48294      0.70229 *
 * O              70     -0.15829      0.01866     -0.93135 *
 * O              71      0.06499     -0.15287     -0.92724 *
 * O              72      0.09760      0.13631     -0.93561 *
 * O              73      0.16574     -0.01361      0.98670 *
 * O              74     -0.06564      0.14413      0.98405 *
 * O              75     -0.08788     -0.13200      0.98736 *
 * O              76     -0.14321      0.04032      0.31292 *
 * O              77      0.03142     -0.14132      0.31492 *
 * O              78      0.10969      0.10429      0.31334 *
 * O              79     -1.60576      1.82079     -0.77020 *
 * O              80     -0.75873     -2.30936     -0.70314 *
 * O              81      2.38005      0.46824     -0.72433 *
 * O              82      0.12621     -0.03135     -0.34490 *
 * O              83     -0.03179      0.12477     -0.34525 *
 * O              84     -0.09139     -0.08942     -0.34694 *
 * O              85      1.60026     -1.80976      0.66793 *
 * O              86      0.77487      2.30245      0.68689 *
 * O              87     -2.38215     -0.48433      0.76485 *
 * O              88     -0.17128      0.01693     -0.93414 *
 * O              89      0.06842     -0.14794     -0.93010 *
 * O              90      0.10398      0.13382     -0.93028 *
 * O              91      0.15840     -0.01310      0.98664 *
 * O              92     -0.07087      0.13974      0.98505 *
 * O              93     -0.09288     -0.12954      0.98672 *
 * O              94     -0.14389      0.04062      0.31354 *
 * O              95      0.03095     -0.14301      0.31563 *
 * O              96      0.10885      0.10321      0.31325 *
 * O              97     -1.63108      1.83371     -0.75786 *
 * O              98     -0.77397     -2.33306     -0.79004 *
 * O              99      2.40274      0.50198     -0.76139 *
 * O             100      0.12818     -0.03189     -0.34427 *
 * O             101     -0.03116      0.12365     -0.34399 *
 * O             102     -0.09293     -0.08885     -0.34479 *
 * O             103      1.63504     -1.83979      0.74931 *
 * O             104      0.78651      2.33698      0.81081 *
 * O             105     -2.40353     -0.51626      0.71299 *
 * O             106     -0.17454      0.01260     -0.92281 *
 * O             107      0.05926     -0.15126     -0.93507 *
 * O             108      0.09704      0.13101     -0.92729 *
 * O             109      0.15950     -0.01036      0.98472 *
 * O             110     -0.07050      0.13981      0.98371 *
 * O             111     -0.08978     -0.13053      0.98551 *
 * O             112     -0.14228      0.03870      0.31588 *
 * O             113      0.03139     -0.14147      0.31654 *
 * O             114      0.11191      0.10267      0.31920 *
 * O             115     -1.61958      1.82133     -0.75289 *
 * O             116     -0.77281     -2.32979     -0.74408 *
 * O             117      2.39420      0.48159     -0.75189 *
 * O             118      0.12565     -0.03146     -0.34588 *
 * O             119     -0.03163      0.12534     -0.34687 *
 * O             120     -0.09298     -0.09268     -0.34432 *
 * O             121      1.59368     -1.85069      0.76632 *
 * O             122      0.77176      2.32467      0.79817 *
 * O             123     -2.37809     -0.50996      0.62861 *
 * O             124     -0.17447      0.01757     -0.92576 *
 * O             125      0.06340     -0.15853     -0.93457 *
 * O             126      0.09254      0.13000     -0.92072 *
 * O             127      0.16018     -0.00725      0.98248 *
 * O             128     -0.06671      0.13940      0.97837 *
 * O             129     -0.09454     -0.13747      0.99293 *
 * O             130     -0.14491      0.03795      0.31374 *
 * O             131      0.02939     -0.14445      0.31489 *
 * O             132      0.11201      0.10307      0.31673 *
 * O             133     -1.63208      1.82852     -0.71082 *
 * O             134     -0.78540     -2.31875     -0.79081 *
 * O             135      2.40234      0.49836     -0.75281 *
 * O             136      0.12402     -0.03160     -0.34770 *
 * O             137     -0.03166      0.12286     -0.34852 *
 * O             138     -0.09129     -0.09125     -0.34519 *
 * O             139      1.61304     -1.81334      0.63464 *
 * O             140      0.80097      2.30063      0.77276 *
 * O             141     -2.39190     -0.48446      0.77569 *
 * O             142     -0.16341      0.01819     -0.93724 *
 * O             143      0.05721     -0.14582     -0.93418 *
 * O             144      0.10464      0.13448     -0.93285 *
 * O             145      0.15319     -0.00986      0.98587 *
 * O             146     -0.06853      0.14077      0.99337 *
 * O             147     -0.09126     -0.13118      0.98321 *
 * O             148     -0.14328      0.03637      0.31376 *
 * O             149      0.02983     -0.14504      0.31477 *
 * O             150      0.10970      0.09994      0.31370 *
 * O             151     -1.61489      1.84579     -0.74162 *
 * O             152     -0.78586     -2.33565     -0.84708 *
 * O             153      2.39480      0.51665     -0.70981 *
 * O             154      0.12715     -0.02987     -0.34757 *
 * O             155     -0.03024      0.12397     -0.34623 *
 * O             156     -0.09250     -0.08860     -0.34489 *
 * O             157      1.62120     -1.80801      0.71138 *
 * O             158      0.77178      2.32748      0.66500 *
 * O             159     -2.40336     -0.48501      0.81189 *
 * O             160     -0.16566      0.01314     -0.92444 *
 * O             161      0.06465     -0.14877     -0.92802 *
 * O             162      0.10300      0.13019     -0.93515 *
 * Al              1     -0.00150     -0.00271     -0.38218 *
 * Al              2     -0.00017     -0.00819     -0.95122 *
 * Al              3     -0.00455      0.00160     -2.01937 *
 * Al              4     -0.00050     -0.00210     -0.58046 *
 * Al              5     -0.00020     -0.00012     -0.06795 *
 * Al              6     -0.00050     -0.00218      0.05752 *
 * Al              7      0.02902      0.02657     -7.14208 *
 * Al              8     -0.00050     -0.00708      7.13310 *
 * Al              9     -0.00091     -0.00078      0.38172 *
 * Al             10     -0.00040     -0.00189      0.59805 *
 * Al             11     -0.01498     -0.01056      0.93321 *
 * Al             12      0.00888     -0.00233      2.03393 *
 * Al             13     -0.00005      0.00074     -0.38380 *
 * Al             14      0.00233     -0.00848     -0.93670 *
 * Al             15      0.00374     -0.00124     -2.02532 *
 * Al             16     -0.00030     -0.00189     -0.58128 *
 * Al             17      0.00026     -0.00087     -0.06777 *
 * Al             18     -0.00025      0.00051      0.05948 *
 * Al             19     -0.00949      0.02682     -7.14297 *
 * Al             20      0.02239      0.03321      7.13143 *
 * Al             21     -0.00119     -0.00029      0.38300 *
 * Al             22      0.00053      0.00053      0.59876 *
 * Al             23      0.00418      0.00250      0.93552 *
 * Al             24      0.00641     -0.01426      2.02637 *
 * Al             25     -0.00206      0.00071     -0.38592 *
 * Al             26      0.02179     -0.01205     -0.93179 *
 * Al             27     -0.00721     -0.00792     -2.02862 *
 * Al             28      0.00085     -0.00083     -0.58151 *
 * Al             29      0.00186     -0.00073     -0.06446 *
 * Al             30     -0.00274      0.00061      0.05883 *
 * Al             31      0.04357      0.04563     -7.14601 *
 * Al             32     -0.03261     -0.00424      7.13242 *
 * Al             33      0.00075      0.00160      0.38203 *
 * Al             34     -0.00057     -0.00177      0.59888 *
 * Al             35     -0.04376      0.00285      0.94640 *
 * Al             36      0.00316     -0.01278      2.03573 *
 * Al             37      0.00070      0.00011     -0.38556 *
 * Al             38      0.00275      0.00418     -0.92824 *
 * Al             39     -0.00138     -0.00354     -2.02206 *
 * Al             40     -0.00061     -0.00217     -0.58222 *
 * Al             41     -0.00097     -0.00064     -0.06417 *
 * Al             42      0.00027     -0.00219      0.05717 *
 * Al             43      0.08379     -0.00746     -7.14436 *
 * Al             44      0.04048      0.01885      7.13385 *
 * Al             45      0.00214     -0.00091      0.38324 *
 * Al             46     -0.00152     -0.00095      0.59825 *
 * Al             47     -0.02897      0.01356      0.93957 *
 * Al             48     -0.00340     -0.00377      2.03398 *
 * Al             49      0.00116     -0.00204     -0.38274 *
 * Al             50      0.00104      0.00774     -0.93898 *
 * Al             51      0.00215     -0.00569     -2.03574 *
 * Al             52      0.00259      0.00000     -0.58152 *
 * Al             53      0.00128      0.00100     -0.06421 *
 * Al             54      0.00360     -0.00091      0.06026 *
 * Al             55     -0.02037      0.04299     -7.14244 *
 * Al             56     -0.02034     -0.00502      7.13593 *
 * Al             57      0.00136     -0.00004      0.38363 *
 * Al             58      0.00176      0.00256      0.59983 *
 * Al             59     -0.00791     -0.01182      0.94472 *
 * Al             60      0.01307      0.00066      2.04288 *
 * Al             61      0.00210     -0.00051     -0.38305 *
 * Al             62     -0.01015      0.00598     -0.95781 *
 * Al             63     -0.00284      0.00624     -2.02111 *
 * Al             64      0.00127      0.00033     -0.58287 *
 * Al             65      0.00029      0.00018     -0.06591 *
 * Al             66     -0.00144     -0.00039      0.06104 *
 * Al             67     -0.05060     -0.00857     -7.14644 *
 * Al             68      0.02874     -0.01190      7.13468 *
 * Al             69      0.00168      0.00348      0.38435 *
 * Al             70     -0.00094      0.00140      0.60110 *
 * Al             71      0.00254     -0.00714      0.95441 *
 * Al             72     -0.00327     -0.01394      2.02023 *
 * Al             73     -0.00042     -0.00165     -0.38409 *
 * Al             74     -0.00094      0.00356     -0.94637 *
 * Al             75     -0.00260     -0.00131     -2.02800 *
 * Al             76     -0.00032      0.00060     -0.58187 *
 * Al             77     -0.00023     -0.00221     -0.06634 *
 * Al             78     -0.00287      0.00019      0.06206 *
 * Al             79     -0.04671     -0.02738     -7.14399 *
 * Al             80     -0.00958     -0.01841      7.13691 *
 * Al             81     -0.00160      0.00036      0.38117 *
 * Al             82     -0.00052      0.00021      0.59794 *
 * Al             83      0.01778      0.02052      0.96264 *
 * Al             84     -0.01768     -0.01287      2.03338 *
 * Al             85      0.00094     -0.00064     -0.38473 *
 * Al             86     -0.00401      0.01492     -0.95668 *
 * Al             87     -0.00514      0.00938     -2.02655 *
 * Al             88      0.00189     -0.00145     -0.58122 *
 * Al             89     -0.00354     -0.00038     -0.06495 *
 * Al             90     -0.00126     -0.00061      0.06036 *
 * Al             91      0.02236      0.07268     -7.14402 *
 * Al             92     -0.05319     -0.04043      7.13444 *
 * Al             93      0.00047     -0.00054      0.38101 *
 * Al             94     -0.00178     -0.00068      0.59717 *
 * Al             95     -0.01401      0.00051      0.92289 *
 * Al             96      0.01503     -0.01026      2.03496 *
 * Al             97      0.00006      0.00148     -0.38353 *
 * Al             98      0.01089     -0.01366     -0.94631 *
 * Al             99      0.00477      0.01829     -2.01896 *
 * Al            100      0.00210     -0.00228     -0.58226 *
 * Al            101      0.00160      0.00122     -0.06726 *
 * Al            102      0.00071     -0.00074      0.05740 *
 * Al            103      0.02211      0.02006     -7.14436 *
 * Al            104      0.00557     -0.00418      7.13186 *
 * Al            105     -0.00108     -0.00282      0.38330 *
 * Al            106     -0.00199     -0.00071      0.59732 *
 * Al            107     -0.02402     -0.02199      0.93521 *
 * Al            108      0.00981      0.00861      2.03527 *
 *                                                          *
 ************************************************************

Writing analysis data to al3x3.castep_bin

Writing model to al3x3.check
 
 A BibTeX formatted list of references used in this run has been written to 
 al3x3.bib
 
Initialisation time =      2.67 s
Calculation time    =    354.27 s
Finalisation time   =      6.38 s
Total time          =    363.33 s
Peak Memory Use     = 1547380 kB
  
Overall parallel efficiency rating: Good (78%)                                  
  
Data was distributed by:-
G-vector (128-way); efficiency rating: Good (79%)                               
k-point (2-way); efficiency rating: Excellent (99%)                             
  
Parallel notes:
1) Calculation only took 357.0 s, so efficiency estimates may be inaccurate.    
