 +-------------------------------------------------+
 |                                                 |
 |      CCC   AA    SSS  TTTTT  EEEEE  PPPP        |
 |     C     A  A  S       T    E      P   P       |
 |     C     AAAA   SS     T    EEE    PPPP        |
 |     C     A  A     S    T    E      P           |
 |      CCC  A  A  SSS     T    EEEEE  P           |
 |                                                 |
 +-------------------------------------------------+
 |                                                 |
 | Welcome to Academic Release CASTEP version 21.11|          
 | Ab Initio Total Energy Program                  |
 |                                                 |
 | Authors:                                        |
 | M. Segall, M. Probert, C. Pickard, P. Hasnip,   |
 | S. Clark, K. Refson, J. R. Yates, M. Payne      |
 |                                                 |
 | Contributors:                                   |
 | P. Lindan, P. Haynes, J. White, V. Milman,      |
 | N. Govind, M. Gibson, P. Tulip, V. Cocula,      |
 | B. Montanari, D. Quigley, M. Glover,            |
 | L. Bernasconi, A. Perlov, M. Plummer,           |
 | E. McNellis, J. Meyer, J. Gale, D. Jochym       |
 | J. Aarons, B. Walker, R. Gillen, D. Jones       |
 | T. Green, I. J. Bush, C. J. Armstrong,          |
 | E. J. Higgins, E. L. Brown, M. S. McFly,        |
 | J. Wilkins, B-C. Shih, P. J. P. Byrne,          |
 | R. J. Maurer, J. C. Womack, J. Dziedzic,        |
 | A. Bartok-Partay, L. LeBlanc                    |
 |                                                 |
 | Copyright (c) 2000 - 2021                       |
 |                                                 |
 |     Distributed under license from Cambridge    |
 |     Enterprise for academic use only.           |
 |                                                 |
 | Please cite                                     |
 |                                                 |
 |     "First principles methods using CASTEP"     |
 |                                                 |
 |         Zeitschrift fuer Kristallographie       |
 |           220(5-6) pp. 567-570 (2005)           |
 |                                                 |
 | S. J. Clark, M. D. Segall, C. J. Pickard,       |
 | P. J. Hasnip, M. J. Probert, K. Refson,         |
 | M. C. Payne                                     |
 |                                                 |
 |       in all publications arising from          |
 |              your use of CASTEP                 |
 |                                                 |
 +-------------------------------------------------+
 |                                                 |
 |              http://www.castep.org              |
 |                                                 |
 +-------------------------------------------------+



 Compiled for linux_x86_64_gfortran10-XT on Wed, 02 Mar 2022 15:03:45 +0000
 from code version 7d4405a8a+  HEAD  Sat Nov 27 13:38:33 2021 +0000
 Compiler: GNU Fortran 11.2.0; Optimisation: fast
 MATHLIBS: LibSci (LAPACK version 3.6.1)
 FFT Lib : fftw3 version commercial-fftw-3.3.8-sse2-avx-avx2-avx2_128
 Fundamental constants values: CODATA 2014

 Run started: Wed, 02 Mar 2022 15:26:25 +0000

 Pseudo atomic calculation performed for O 2s2 2p4

 Converged in 13 iterations to a total energy of -430.9847 eV

 Pseudo atomic calculation performed for Al 3s2 3p1

 Converged in 14 iterations to a total energy of -53.3906 eV
 Calculation parallelised over 128 processes.
 Data is distributed by G-vector(64-way) and k-point(2-way)
 G-vector communication optimised for up to 2-way SMP.

 ************************************ Title ************************************
 3x3 sapphire surface benchmark (v1.1)

 ***************************** General Parameters ******************************
  
 output verbosity                               : normal  (1)
 write checkpoint data to                       : al3x3.check
 type of calculation                            : single point energy
 stress calculation                             : off
 density difference calculation                 : off
 electron localisation func (ELF) calculation   : off
 Hirshfeld analysis                             : off
 polarisation (Berry phase) analysis            : off
 molecular orbital projected DOS                : off
 deltaSCF calculation                           : off
 unlimited duration calculation
 timing information                             : on
 memory usage estimate                          : on
 write extra output files                       : on
 write final potential to formatted file        : off
 write final density to formatted file          : off
 write BibTeX reference list                    : on
 write OTFG pseudopotential files               : on
 write electrostatic potential file             : on
 write bands file                               : on
 checkpoint writing                             : both castep_bin and check files
  
 output         length unit                     : A
 output           mass unit                     : amu
 output           time unit                     : ps
 output         charge unit                     : e
 output           spin unit                     : hbar/2
 output         energy unit                     : eV
 output          force unit                     : eV/A
 output       velocity unit                     : A/ps
 output       pressure unit                     : GPa
 output     inv_length unit                     : 1/A
 output      frequency unit                     : cm-1
 output force constant unit                     : eV/A**2
 output         volume unit                     : A**3
 output   IR intensity unit                     : (D/A)**2/amu
 output         dipole unit                     : D
 output         efield unit                     : eV/A/e
 output        entropy unit                     : J/mol/K
 output    efield chi2 unit                     : pm/V
  
 wavefunctions paging                           : none
 random number generator seed                   :          1
 data distribution                              : optimal for this architecture
 optimization strategy                          : maximize speed(+++)
 num active processors in SMP node              :          2

 *********************** Exchange-Correlation Parameters ***********************
  
 using functional                               : Perdew Wang (1991)
 relativistic treatment                         : Koelling-Harmon
 DFT+D: Semi-empirical dispersion correction    : off

 ************************* Pseudopotential Parameters **************************
  
 pseudopotential representation                 : reciprocal space
 <beta|phi> representation                      : reciprocal space
 spin-orbit coupling                            : off

 **************************** Basis Set Parameters *****************************
  
 plane wave basis set cut-off                   :   400.0000   eV
 size of standard grid                          :     1.7500
 size of   fine   gmax                          :    17.9311   1/A
 finite basis set correction                    : none

 **************************** Electronic Parameters ****************************
  
 number of  electrons                           :  1296.    
 net charge of system                           :  0.000    
 treating system as non-spin-polarized
 number of bands                                :        768

 ********************* Electronic Minimization Parameters **********************
  
 Method: Treating system as metallic with density mixing treatment of electrons,
         and number of  SD  steps               :          1
         and number of  CG  steps               :          4
  
 total energy / atom convergence tol.           : 0.1500E-01   eV
 eigen-energy convergence tolerance             : 0.1000E-05   eV
 max force / atom convergence tol.              : ignored
 convergence tolerance window                   :          3   cycles
 max. number of SCF cycles                      :         40
 smearing scheme                                : Gaussian
 smearing width                                 : 0.1000       eV
 Fermi energy convergence tolerance             : 0.2721E-13   eV
 periodic dipole correction                     : NONE

 ************************** Density Mixing Parameters **************************
  
 density-mixing scheme                          : Pulay
 max. length of mixing history                  :         20
 charge density mixing amplitude                : 0.8000    
 cut-off energy for mixing                      :  400.0       eV

 *******************************************************************************
  

                           -------------------------------
                                      Unit Cell
                           -------------------------------
        Real Lattice(A)                      Reciprocal Lattice(1/A)
    12.3642447    -7.1385000     0.0000000        0.508173808   0.000000000   0.000000000
     0.0000000    14.2770000     0.0000000        0.254086904   0.440091427   0.000000000
     0.0000000     0.0000000    27.5000000        0.000000000   0.000000000   0.228479466

                       Lattice parameters(A)       Cell Angles
                    a =     14.277000          alpha =   90.000000
                    b =     14.277000          beta  =   90.000000
                    c =     27.500000          gamma =  120.000000

                       Current cell volume =          4854.418839       A**3
                                   density =             1.134206   AMU/A**3
                                           =             1.883393     g/cm^3

                           -------------------------------
                                     Cell Contents
                           -------------------------------
                         Total number of ions in cell =  270
                      Total number of species in cell =    2
                        Max number of any one species =  162

            xxxxxxxxxxxxxxxxxxxxxxxxxxxxxxxxxxxxxxxxxxxxxxxxxxxxxxxxxxxx
            x  Element    Atom        Fractional coordinates of atoms  x
            x            Number           u          v          w      x
            x----------------------------------------------------------x
            x  O            1         0.102000   0.000000   0.645700   x 
            x  O            2         0.000000   0.102000   0.645700   x 
            x  O            3         0.231333   0.231333   0.645700   x 
            x  O            4         0.009111   0.222222   0.724433   x 
            x  O            5         0.111111   0.120222   0.724433   x 
            x  O            6         0.213111   0.324222   0.724433   x 
            x  O            7         0.120222   0.111111   0.566967   x 
            x  O            8         0.222222   0.009111   0.566967   x 
            x  O            9         0.324222   0.213111   0.566967   x 
            x  O           10         0.324222   0.111111   0.803167   x 
            x  O           11         0.222222   0.213111   0.803167   x 
            x  O           12         0.120222   0.009111   0.803167   x 
            x  O           13         0.213111   0.222222   0.960633   x 
            x  O           14         0.111111   0.324222   0.960633   x 
            x  O           15         0.009111   0.120222   0.960633   x 
            x  O           16         0.231333   0.000000   0.881900   x 
            x  O           17         0.000000   0.231333   0.881900   x 
            x  O           18         0.102000   0.102000   0.881900   x 
            x  O           19         0.102000   0.333333   0.645700   x 
            x  O           20         0.000000   0.435333   0.645700   x 
            x  O           21         0.231333   0.564667   0.645700   x 
            x  O           22         0.009111   0.555556   0.724433   x 
            x  O           23         0.111111   0.453556   0.724433   x 
            x  O           24         0.213111   0.657556   0.724433   x 
            x  O           25         0.120222   0.444444   0.566967   x 
            x  O           26         0.222222   0.342444   0.566967   x 
            x  O           27         0.324222   0.546444   0.566967   x 
            x  O           28         0.324222   0.444444   0.803167   x 
            x  O           29         0.222222   0.546444   0.803167   x 
            x  O           30         0.120222   0.342444   0.803167   x 
            x  O           31         0.213111   0.555556   0.960633   x 
            x  O           32         0.111111   0.657556   0.960633   x 
            x  O           33         0.009111   0.453556   0.960633   x 
            x  O           34         0.231333   0.333333   0.881900   x 
            x  O           35         0.000000   0.564667   0.881900   x 
            x  O           36         0.102000   0.435333   0.881900   x 
            x  O           37         0.102000   0.666667   0.645700   x 
            x  O           38         0.000000   0.768667   0.645700   x 
            x  O           39         0.231333   0.898000   0.645700   x 
            x  O           40         0.009111   0.888889   0.724433   x 
            x  O           41         0.111111   0.786889   0.724433   x 
            x  O           42         0.213111   0.990889   0.724433   x 
            x  O           43         0.120222   0.777778   0.566967   x 
            x  O           44         0.222222   0.675778   0.566967   x 
            x  O           45         0.324222   0.879778   0.566967   x 
            x  O           46         0.324222   0.777778   0.803167   x 
            x  O           47         0.222222   0.879778   0.803167   x 
            x  O           48         0.120222   0.675778   0.803167   x 
            x  O           49         0.213111   0.888889   0.960633   x 
            x  O           50         0.111111   0.990889   0.960633   x 
            x  O           51         0.009111   0.786889   0.960633   x 
            x  O           52         0.231333   0.666667   0.881900   x 
            x  O           53         0.000000   0.898000   0.881900   x 
            x  O           54         0.102000   0.768667   0.881900   x 
            x  O           55         0.435333   0.000000   0.645700   x 
            x  O           56         0.333333   0.102000   0.645700   x 
            x  O           57         0.564667   0.231333   0.645700   x 
            x  O           58         0.342444   0.222222   0.724433   x 
            x  O           59         0.444444   0.120222   0.724433   x 
            x  O           60         0.546444   0.324222   0.724433   x 
            x  O           61         0.453556   0.111111   0.566967   x 
            x  O           62         0.555556   0.009111   0.566967   x 
            x  O           63         0.657556   0.213111   0.566967   x 
            x  O           64         0.657556   0.111111   0.803167   x 
            x  O           65         0.555556   0.213111   0.803167   x 
            x  O           66         0.453556   0.009111   0.803167   x 
            x  O           67         0.546444   0.222222   0.960633   x 
            x  O           68         0.444444   0.324222   0.960633   x 
            x  O           69         0.342444   0.120222   0.960633   x 
            x  O           70         0.564667   0.000000   0.881900   x 
            x  O           71         0.333333   0.231333   0.881900   x 
            x  O           72         0.435333   0.102000   0.881900   x 
            x  O           73         0.435333   0.333333   0.645700   x 
            x  O           74         0.333333   0.435333   0.645700   x 
            x  O           75         0.564667   0.564667   0.645700   x 
            x  O           76         0.342444   0.555556   0.724433   x 
            x  O           77         0.444444   0.453556   0.724433   x 
            x  O           78         0.546444   0.657556   0.724433   x 
            x  O           79         0.453556   0.444444   0.566967   x 
            x  O           80         0.555556   0.342444   0.566967   x 
            x  O           81         0.657556   0.546444   0.566967   x 
            x  O           82         0.657556   0.444444   0.803167   x 
            x  O           83         0.555556   0.546444   0.803167   x 
            x  O           84         0.453556   0.342444   0.803167   x 
            x  O           85         0.546444   0.555556   0.960633   x 
            x  O           86         0.444444   0.657556   0.960633   x 
            x  O           87         0.342444   0.453556   0.960633   x 
            x  O           88         0.564667   0.333333   0.881900   x 
            x  O           89         0.333333   0.564667   0.881900   x 
            x  O           90         0.435333   0.435333   0.881900   x 
            x  O           91         0.435333   0.666667   0.645700   x 
            x  O           92         0.333333   0.768667   0.645700   x 
            x  O           93         0.564667   0.898000   0.645700   x 
            x  O           94         0.342444   0.888889   0.724433   x 
            x  O           95         0.444444   0.786889   0.724433   x 
            x  O           96         0.546444   0.990889   0.724433   x 
            x  O           97         0.453556   0.777778   0.566967   x 
            x  O           98         0.555556   0.675778   0.566967   x 
            x  O           99         0.657556   0.879778   0.566967   x 
            x  O          100         0.657556   0.777778   0.803167   x 
            x  O          101         0.555556   0.879778   0.803167   x 
            x  O          102         0.453556   0.675778   0.803167   x 
            x  O          103         0.546444   0.888889   0.960633   x 
            x  O          104         0.444444   0.990889   0.960633   x 
            x  O          105         0.342444   0.786889   0.960633   x 
            x  O          106         0.564667   0.666667   0.881900   x 
            x  O          107         0.333333   0.898000   0.881900   x 
            x  O          108         0.435333   0.768667   0.881900   x 
            x  O          109         0.768667   0.000000   0.645700   x 
            x  O          110         0.666667   0.102000   0.645700   x 
            x  O          111         0.898000   0.231333   0.645700   x 
            x  O          112         0.675778   0.222222   0.724433   x 
            x  O          113         0.777778   0.120222   0.724433   x 
            x  O          114         0.879778   0.324222   0.724433   x 
            x  O          115         0.786889   0.111111   0.566967   x 
            x  O          116         0.888889   0.009111   0.566967   x 
            x  O          117         0.990889   0.213111   0.566967   x 
            x  O          118         0.990889   0.111111   0.803167   x 
            x  O          119         0.888889   0.213111   0.803167   x 
            x  O          120         0.786889   0.009111   0.803167   x 
            x  O          121         0.879778   0.222222   0.960633   x 
            x  O          122         0.777778   0.324222   0.960633   x 
            x  O          123         0.675778   0.120222   0.960633   x 
            x  O          124         0.898000   0.000000   0.881900   x 
            x  O          125         0.666667   0.231333   0.881900   x 
            x  O          126         0.768667   0.102000   0.881900   x 
            x  O          127         0.768667   0.333333   0.645700   x 
            x  O          128         0.666667   0.435333   0.645700   x 
            x  O          129         0.898000   0.564667   0.645700   x 
            x  O          130         0.675778   0.555556   0.724433   x 
            x  O          131         0.777778   0.453556   0.724433   x 
            x  O          132         0.879778   0.657556   0.724433   x 
            x  O          133         0.786889   0.444444   0.566967   x 
            x  O          134         0.888889   0.342444   0.566967   x 
            x  O          135         0.990889   0.546444   0.566967   x 
            x  O          136         0.990889   0.444444   0.803167   x 
            x  O          137         0.888889   0.546444   0.803167   x 
            x  O          138         0.786889   0.342444   0.803167   x 
            x  O          139         0.879778   0.555556   0.960633   x 
            x  O          140         0.777778   0.657556   0.960633   x 
            x  O          141         0.675778   0.453556   0.960633   x 
            x  O          142         0.898000   0.333333   0.881900   x 
            x  O          143         0.666667   0.564667   0.881900   x 
            x  O          144         0.768667   0.435333   0.881900   x 
            x  O          145         0.768667   0.666667   0.645700   x 
            x  O          146         0.666667   0.768667   0.645700   x 
            x  O          147         0.898000   0.898000   0.645700   x 
            x  O          148         0.675778   0.888889   0.724433   x 
            x  O          149         0.777778   0.786889   0.724433   x 
            x  O          150         0.879778   0.990889   0.724433   x 
            x  O          151         0.786889   0.777778   0.566967   x 
            x  O          152         0.888889   0.675778   0.566967   x 
            x  O          153         0.990889   0.879778   0.566967   x 
            x  O          154         0.990889   0.777778   0.803167   x 
            x  O          155         0.888889   0.879778   0.803167   x 
            x  O          156         0.786889   0.675778   0.803167   x 
            x  O          157         0.879778   0.888889   0.960633   x 
            x  O          158         0.777778   0.990889   0.960633   x 
            x  O          159         0.675778   0.786889   0.960633   x 
            x  O          160         0.898000   0.666667   0.881900   x 
            x  O          161         0.666667   0.898000   0.881900   x 
            x  O          162         0.768667   0.768667   0.881900   x 
            x  Al           1         0.000000   0.000000   0.693885   x 
            x  Al           2         0.000000   0.000000   0.597515   x 
            x  Al           3         0.222222   0.111111   0.615151   x 
            x  Al           4         0.111111   0.222222   0.676249   x 
            x  Al           5         0.222222   0.111111   0.754982   x 
            x  Al           6         0.111111   0.222222   0.772618   x 
            x  Al           7         0.222222   0.111111   0.991182   x 
            x  Al           8         0.111111   0.222222   0.536418   x 
            x  Al           9         0.000000   0.000000   0.833715   x 
            x  Al          10         0.222222   0.111111   0.851351   x 
            x  Al          11         0.000000   0.000000   0.930085   x 
            x  Al          12         0.111111   0.222222   0.912449   x 
            x  Al          13         0.000000   0.333333   0.693885   x 
            x  Al          14         0.000000   0.333333   0.597515   x 
            x  Al          15         0.222222   0.444444   0.615151   x 
            x  Al          16         0.111111   0.555556   0.676249   x 
            x  Al          17         0.222222   0.444444   0.754982   x 
            x  Al          18         0.111111   0.555556   0.772618   x 
            x  Al          19         0.222222   0.444444   0.991182   x 
            x  Al          20         0.111111   0.555556   0.536418   x 
            x  Al          21         0.000000   0.333333   0.833715   x 
            x  Al          22         0.222222   0.444444   0.851351   x 
            x  Al          23         0.000000   0.333333   0.930085   x 
            x  Al          24         0.111111   0.555556   0.912449   x 
            x  Al          25         0.000000   0.666667   0.693885   x 
            x  Al          26         0.000000   0.666667   0.597515   x 
            x  Al          27         0.222222   0.777778   0.615151   x 
            x  Al          28         0.111111   0.888889   0.676249   x 
            x  Al          29         0.222222   0.777778   0.754982   x 
            x  Al          30         0.111111   0.888889   0.772618   x 
            x  Al          31         0.222222   0.777778   0.991182   x 
            x  Al          32         0.111111   0.888889   0.536418   x 
            x  Al          33         0.000000   0.666667   0.833715   x 
            x  Al          34         0.222222   0.777778   0.851351   x 
            x  Al          35         0.000000   0.666667   0.930085   x 
            x  Al          36         0.111111   0.888889   0.912449   x 
            x  Al          37         0.333333   0.000000   0.693885   x 
            x  Al          38         0.333333   0.000000   0.597515   x 
            x  Al          39         0.555556   0.111111   0.615151   x 
            x  Al          40         0.444444   0.222222   0.676249   x 
            x  Al          41         0.555556   0.111111   0.754982   x 
            x  Al          42         0.444444   0.222222   0.772618   x 
            x  Al          43         0.555556   0.111111   0.991182   x 
            x  Al          44         0.444444   0.222222   0.536418   x 
            x  Al          45         0.333333   0.000000   0.833715   x 
            x  Al          46         0.555556   0.111111   0.851351   x 
            x  Al          47         0.333333   0.000000   0.930085   x 
            x  Al          48         0.444444   0.222222   0.912449   x 
            x  Al          49         0.333333   0.333333   0.693885   x 
            x  Al          50         0.333333   0.333333   0.597515   x 
            x  Al          51         0.555556   0.444444   0.615151   x 
            x  Al          52         0.444444   0.555556   0.676249   x 
            x  Al          53         0.555556   0.444444   0.754982   x 
            x  Al          54         0.444444   0.555556   0.772618   x 
            x  Al          55         0.555556   0.444444   0.991182   x 
            x  Al          56         0.444444   0.555556   0.536418   x 
            x  Al          57         0.333333   0.333333   0.833715   x 
            x  Al          58         0.555556   0.444444   0.851351   x 
            x  Al          59         0.333333   0.333333   0.930085   x 
            x  Al          60         0.444444   0.555556   0.912449   x 
            x  Al          61         0.333333   0.666667   0.693885   x 
            x  Al          62         0.333333   0.666667   0.597515   x 
            x  Al          63         0.555556   0.777778   0.615151   x 
            x  Al          64         0.444444   0.888889   0.676249   x 
            x  Al          65         0.555556   0.777778   0.754982   x 
            x  Al          66         0.444444   0.888889   0.772618   x 
            x  Al          67         0.555556   0.777778   0.991182   x 
            x  Al          68         0.444444   0.888889   0.536418   x 
            x  Al          69         0.333333   0.666667   0.833715   x 
            x  Al          70         0.555556   0.777778   0.851351   x 
            x  Al          71         0.333333   0.666667   0.930085   x 
            x  Al          72         0.444444   0.888889   0.912449   x 
            x  Al          73         0.666667   0.000000   0.693885   x 
            x  Al          74         0.666667   0.000000   0.597515   x 
            x  Al          75         0.888889   0.111111   0.615151   x 
            x  Al          76         0.777778   0.222222   0.676249   x 
            x  Al          77         0.888889   0.111111   0.754982   x 
            x  Al          78         0.777778   0.222222   0.772618   x 
            x  Al          79         0.888889   0.111111   0.991182   x 
            x  Al          80         0.777778   0.222222   0.536418   x 
            x  Al          81         0.666667   0.000000   0.833715   x 
            x  Al          82         0.888889   0.111111   0.851351   x 
            x  Al          83         0.666667   0.000000   0.930085   x 
            x  Al          84         0.777778   0.222222   0.912449   x 
            x  Al          85         0.666667   0.333333   0.693885   x 
            x  Al          86         0.666667   0.333333   0.597515   x 
            x  Al          87         0.888889   0.444444   0.615151   x 
            x  Al          88         0.777778   0.555556   0.676249   x 
            x  Al          89         0.888889   0.444444   0.754982   x 
            x  Al          90         0.777778   0.555556   0.772618   x 
            x  Al          91         0.888889   0.444444   0.991182   x 
            x  Al          92         0.777778   0.555556   0.536418   x 
            x  Al          93         0.666667   0.333333   0.833715   x 
            x  Al          94         0.888889   0.444444   0.851351   x 
            x  Al          95         0.666667   0.333333   0.930085   x 
            x  Al          96         0.777778   0.555556   0.912449   x 
            x  Al          97         0.666667   0.666667   0.693885   x 
            x  Al          98         0.666667   0.666667   0.597515   x 
            x  Al          99         0.888889   0.777778   0.615151   x 
            x  Al         100         0.777778   0.888889   0.676249   x 
            x  Al         101         0.888889   0.777778   0.754982   x 
            x  Al         102         0.777778   0.888889   0.772618   x 
            x  Al         103         0.888889   0.777778   0.991182   x 
            x  Al         104         0.777778   0.888889   0.536418   x 
            x  Al         105         0.666667   0.666667   0.833715   x 
            x  Al         106         0.888889   0.777778   0.851351   x 
            x  Al         107         0.666667   0.666667   0.930085   x 
            x  Al         108         0.777778   0.888889   0.912449   x 
            xxxxxxxxxxxxxxxxxxxxxxxxxxxxxxxxxxxxxxxxxxxxxxxxxxxxxxxxxxxx


                         No user defined ionic velocities

                           -------------------------------
                                   Details of Species
                           -------------------------------

                               Mass of species in AMU
                                    O   15.9994000
                                    Al   26.9815400

                          Electric Quadrupole Moment (Barn)
                                    O   -0.0255800 Isotope 17
                                    Al    0.1466000 Isotope 27

                          Files used for pseudopotentials:
                                    O O_00.usp
                                    Al Al_00.usp

                           -------------------------------
                              k-Points For BZ Sampling
                           -------------------------------
                       MP grid size for SCF calculation is  2  2  1
                            with an offset of   0.000  0.000  0.000
                       Number of kpoints used =             2

                           -------------------------------
                               Symmetry and Constraints
                           -------------------------------

                      Cell is a supercell containing 9 primitive cells
                      Maximum deviation from symmetry =  0.00000         ANG

                      Number of symmetry operations   =           1
                      Number of ionic constraints     =           3
                      Point group of crystal =     1: C1, 1, 1
                      Space group of crystal =   147: P-3, -P 3

             Set iprint > 1 for details on symmetry rotations/translations

                         Centre of mass is constrained
             Set iprint > 1 for details of linear ionic constraints

                         Number of cell constraints= 0
                         Cell constraints are:  1 2 3 4 5 6

                         External pressure/stress (GPa)
                          0.00000   0.00000   0.00000
                                    0.00000   0.00000
                                              0.00000
  
+---------------- MEMORY AND SCRATCH DISK ESTIMATES PER PROCESS --------------+
|                                                     Memory          Disk    |
| Baseline code, static data and system overhead      730.0 MB         0.0 MB |
| BLAS internal memory storage                          0.0 MB         0.0 MB |
| Model and support data                              115.9 MB         0.0 MB |
| Electronic energy minimisation requirements          81.0 MB         0.0 MB |
| Force calculation requirements                        3.3 MB         0.0 MB |
|                                               ----------------------------- |
| Approx. total storage required per process          926.9 MB         0.0 MB |
|                                                                             |
| Requirements will fluctuate during execution and may exceed these estimates |
+-----------------------------------------------------------------------------+
Calculating approximate eigenstates for fixed initial Hamiltonian
Cut-off for approx. calculation is  155.625 eV
Improving approx. states at cut-off of  200.000 eV
Resetting cut-off to  400.000 eV
Calculating total energy with cut-off of  400.000 eV.
------------------------------------------------------------------------ <-- SCF
SCF loop      Energy           Fermi           Energy gain       Timer   <-- SCF
                               energy          per atom          (sec)   <-- SCF
------------------------------------------------------------------------ <-- SCF
Initial  -7.61262427E+004  0.00000000E+000                       213.66  <-- SCF
      1  -7.79035274E+004  1.71445994E+000   6.58253603E+000     237.49  <-- SCF
      2  -7.79104238E+004  1.71924239E+000   2.55423146E-002     262.24  <-- SCF
      3  -7.78188305E+004  1.84814977E+000  -3.39234475E-001     288.84  <-- SCF
      4  -7.77199041E+004  1.30434445E+000  -3.66394070E-001     316.90  <-- SCF
      5  -7.77148462E+004  1.11487602E+000  -1.87330918E-002     345.57  <-- SCF
      6  -7.77125653E+004  1.04424792E+000  -8.44760632E-003     374.13  <-- SCF
      7  -7.77102390E+004  1.02666872E+000  -8.61628803E-003     401.00  <-- SCF
      8  -7.77081458E+004  9.90607155E-001  -7.75252349E-003     429.26  <-- SCF
      9  -7.77060033E+004  1.09931675E+000  -7.93496127E-003     456.94  <-- SCF
     10  -7.77051703E+004  1.16175482E+000  -3.08516407E-003     483.08  <-- SCF
------------------------------------------------------------------------ <-- SCF
 
Final energy, E             =  -77705.17033492     eV
Final free energy (E-TS)    =  -77705.17033493     eV
(energies not corrected for finite basis set)
 
NB est. 0K energy (E-0.5TS)      =  -77705.17033492     eV
 

Writing analysis data to al3x3.castep_bin

Writing model to al3x3.check

 ************************** Forces **************************
 *                                                          *
 *               Cartesian components (eV/A)                *
 * -------------------------------------------------------- *
 *                         x            y            z      *
 *                                                          *
 * O               1      0.16837      0.02126      0.72213 *
 * O               2     -0.10298      0.12969      0.71820 *
 * O               3     -0.06231     -0.15236      0.72495 *
 * O               4     -0.10787      0.03204      0.30139 *
 * O               5      0.01939     -0.10967      0.30305 *
 * O               6      0.08893      0.07458      0.30198 *
 * O               7     -1.64509      1.74410     -1.02045 *
 * O               8     -0.68447     -2.29154     -1.03038 *
 * O               9      2.34509      0.55369     -1.02327 *
 * O              10      0.09017     -0.02693     -0.30867 *
 * O              11     -0.01799      0.09080     -0.31337 *
 * O              12     -0.06981     -0.06415     -0.30920 *
 * O              13      1.62757     -1.73507      0.97765 *
 * O              14      0.69566      2.28407      0.98120 *
 * O              15     -2.33654     -0.54363      0.97581 *
 * O              16     -0.17592     -0.01384     -0.67455 *
 * O              17      0.09693     -0.14423     -0.66872 *
 * O              18      0.07699      0.15439     -0.67281 *
 * O              19      0.17096      0.02233      0.72100 *
 * O              20     -0.10413      0.13112      0.71850 *
 * O              21     -0.06454     -0.15432      0.72047 *
 * O              22     -0.10639      0.03238      0.30134 *
 * O              23      0.01961     -0.10949      0.30412 *
 * O              24      0.08937      0.07438      0.30118 *
 * O              25     -1.63879      1.73691     -1.02043 *
 * O              26     -0.67437     -2.26503     -1.03730 *
 * O              27      2.32078      0.54978     -1.02584 *
 * O              28      0.09215     -0.02661     -0.30899 *
 * O              29     -0.01903      0.09158     -0.31156 *
 * O              30     -0.06987     -0.06459     -0.30886 *
 * O              31      1.62781     -1.73835      0.97978 *
 * O              32      0.69845      2.29361      0.97215 *
 * O              33     -2.34294     -0.54558      0.97061 *
 * O              34     -0.17823     -0.01339     -0.67322 *
 * O              35      0.09728     -0.14313     -0.67001 *
 * O              36      0.07795      0.15361     -0.66991 *
 * O              37      0.17044      0.02128      0.72232 *
 * O              38     -0.10170      0.13168      0.71700 *
 * O              39     -0.06260     -0.15659      0.72189 *
 * O              40     -0.10798      0.03237      0.30090 *
 * O              41      0.01874     -0.10992      0.30393 *
 * O              42      0.09070      0.07513      0.30199 *
 * O              43     -1.63298      1.72875     -1.02396 *
 * O              44     -0.67677     -2.26814     -1.03514 *
 * O              45      2.30722      0.54854     -1.03668 *
 * O              46      0.09150     -0.02548     -0.30966 *
 * O              47     -0.01769      0.09174     -0.31172 *
 * O              48     -0.07036     -0.06421     -0.30978 *
 * O              49      1.63613     -1.75049      0.96794 *
 * O              50      0.69792      2.29761      0.97122 *
 * O              51     -2.31818     -0.54285      0.98228 *
 * O              52     -0.17653     -0.01134     -0.67113 *
 * O              53      0.09636     -0.14475     -0.66882 *
 * O              54      0.07673      0.15476     -0.67024 *
 * O              55      0.16770      0.02213      0.72334 *
 * O              56     -0.10240      0.13044      0.72023 *
 * O              57     -0.06269     -0.15556      0.72023 *
 * O              58     -0.10622      0.03367      0.30230 *
 * O              59      0.01856     -0.11118      0.30417 *
 * O              60      0.08958      0.07615      0.30103 *
 * O              61     -1.63296      1.73304     -1.02820 *
 * O              62     -0.69048     -2.29866     -1.02396 *
 * O              63      2.29809      0.54529     -1.03787 *
 * O              64      0.09065     -0.02659     -0.30900 *
 * O              65     -0.01741      0.09063     -0.31279 *
 * O              66     -0.07097     -0.06348     -0.30894 *
 * O              67      1.62923     -1.73726      0.97279 *
 * O              68      0.68733      2.26406      0.98437 *
 * O              69     -2.32005     -0.53853      0.97371 *
 * O              70     -0.17792     -0.01142     -0.67466 *
 * O              71      0.09970     -0.14484     -0.66584 *
 * O              72      0.07588      0.15603     -0.67033 *
 * O              73      0.17054      0.02063      0.72384 *
 * O              74     -0.10433      0.12943      0.71962 *
 * O              75     -0.06485     -0.15497      0.72180 *
 * O              76     -0.10690      0.03218      0.30109 *
 * O              77      0.01781     -0.10988      0.30326 *
 * O              78      0.09001      0.07505      0.30109 *
 * O              79     -1.64260      1.74083     -1.02078 *
 * O              80     -0.68021     -2.27280     -1.03893 *
 * O              81      2.33311      0.55160     -1.02639 *
 * O              82      0.09113     -0.02819     -0.31028 *
 * O              83     -0.01870      0.09208     -0.31101 *
 * O              84     -0.07036     -0.06430     -0.30938 *
 * O              85      1.63629     -1.74292      0.97368 *
 * O              86      0.69298      2.27089      0.98183 *
 * O              87     -2.35156     -0.54134      0.96425 *
 * O              88     -0.18102     -0.01227     -0.67185 *
 * O              89      0.09593     -0.14368     -0.66836 *
 * O              90      0.07744      0.15413     -0.67250 *
 * O              91      0.17098      0.02119      0.72319 *
 * O              92     -0.10526      0.13210      0.71761 *
 * O              93     -0.06268     -0.15728      0.72308 *
 * O              94     -0.10829      0.03171      0.30158 *
 * O              95      0.01780     -0.11015      0.30453 *
 * O              96      0.09101      0.07538      0.30276 *
 * O              97     -1.64320      1.74714     -1.01829 *
 * O              98     -0.67182     -2.26619     -1.04134 *
 * O              99      2.31681      0.54988     -1.03242 *
 * O             100      0.09044     -0.02633     -0.30941 *
 * O             101     -0.01849      0.09105     -0.31132 *
 * O             102     -0.07036     -0.06329     -0.30897 *
 * O             103      1.64379     -1.76049      0.96187 *
 * O             104      0.69020      2.27298      0.98221 *
 * O             105     -2.31536     -0.53947      0.98180 *
 * O             106     -0.17803     -0.01154     -0.67350 *
 * O             107      0.09812     -0.14497     -0.66736 *
 * O             108      0.07683      0.15424     -0.67076 *
 * O             109      0.16939      0.02058      0.72528 *
 * O             110     -0.10299      0.13378      0.72174 *
 * O             111     -0.06327     -0.15437      0.72260 *
 * O             112     -0.10701      0.03304      0.30171 *
 * O             113      0.01925     -0.11014      0.30325 *
 * O             114      0.08875      0.07554      0.30164 *
 * O             115     -1.64857      1.74756     -1.01865 *
 * O             116     -0.67769     -2.27871     -1.03784 *
 * O             117      2.32512      0.54976     -1.02726 *
 * O             118      0.09104     -0.02702     -0.30949 *
 * O             119     -0.01792      0.09139     -0.31292 *
 * O             120     -0.06914     -0.06377     -0.30832 *
 * O             121      1.63215     -1.73800      0.97503 *
 * O             122      0.68516      2.26498      0.98372 *
 * O             123     -2.33938     -0.54617      0.96896 *
 * O             124     -0.17739     -0.01288     -0.67349 *
 * O             125      0.09913     -0.14375     -0.66877 *
 * O             126      0.07858      0.15340     -0.66933 *
 * O             127      0.16952      0.02087      0.72163 *
 * O             128     -0.10324      0.12925      0.71690 *
 * O             129     -0.06434     -0.15546      0.72301 *
 * O             130     -0.10764      0.03273      0.30281 *
 * O             131      0.01891     -0.10986      0.30351 *
 * O             132      0.08960      0.07552      0.30023 *
 * O             133     -1.63848      1.73928     -1.02535 *
 * O             134     -0.67569     -2.26942     -1.03872 *
 * O             135      2.33430      0.55319     -1.02665 *
 * O             136      0.09079     -0.02658     -0.31082 *
 * O             137     -0.01743      0.09063     -0.31280 *
 * O             138     -0.07128     -0.06458     -0.30846 *
 * O             139      1.63013     -1.73543      0.97918 *
 * O             140      0.69777      2.29412      0.97555 *
 * O             141     -2.35437     -0.54468      0.96343 *
 * O             142     -0.17719     -0.01113     -0.67060 *
 * O             143      0.09702     -0.14345     -0.67170 *
 * O             144      0.07943      0.15143     -0.67102 *
 * O             145      0.17055      0.02102      0.72427 *
 * O             146     -0.10360      0.13108      0.71726 *
 * O             147     -0.06144     -0.15504      0.71830 *
 * O             148     -0.10837      0.03334      0.30100 *
 * O             149      0.01699     -0.10947      0.30433 *
 * O             150      0.09047      0.07275      0.30195 *
 * O             151     -1.64152      1.74347     -1.01812 *
 * O             152     -0.68190     -2.28104     -1.03312 *
 * O             153      2.30038      0.54753     -1.03713 *
 * O             154      0.09106     -0.02596     -0.30844 *
 * O             155     -0.01664      0.09147     -0.31255 *
 * O             156     -0.06965     -0.06467     -0.30856 *
 * O             157      1.63252     -1.74025      0.97636 *
 * O             158      0.69540      2.29103      0.97806 *
 * O             159     -2.33419     -0.53986      0.97725 *
 * O             160     -0.17702     -0.01158     -0.67042 *
 * O             161      0.09831     -0.14443     -0.67243 *
 * O             162      0.07710      0.15331     -0.67194 *
 * Al              1      0.00030     -0.00055     -0.04569 *
 * Al              2     -0.00707     -0.00667     -0.86101 *
 * Al              3     -0.00082     -0.00385     -1.95241 *
 * Al              4      0.00064     -0.00050     -0.25340 *
 * Al              5      0.00019     -0.00081     -0.07876 *
 * Al              6      0.00072     -0.00019      0.08114 *
 * Al              7      0.00485      0.00441     -7.33357 *
 * Al              8      0.01091      0.01054      7.33374 *
 * Al              9      0.00065     -0.00040      0.05132 *
 * Al             10      0.00052     -0.00065      0.27313 *
 * Al             11     -0.00398     -0.00264      0.85797 *
 * Al             12      0.00378      0.00029      1.96594 *
 * Al             13      0.00034     -0.00079     -0.04557 *
 * Al             14     -0.00642      0.00408     -0.86036 *
 * Al             15      0.00084     -0.00705     -1.96203 *
 * Al             16      0.00063     -0.00018     -0.25322 *
 * Al             17      0.00014     -0.00062     -0.07860 *
 * Al             18      0.00076     -0.00032      0.08103 *
 * Al             19     -0.00952      0.00767     -7.33220 *
 * Al             20      0.01425      0.00383      7.33241 *
 * Al             21      0.00080     -0.00066      0.05119 *
 * Al             22      0.00048     -0.00059      0.27334 *
 * Al             23     -0.00106     -0.00801      0.85810 *
 * Al             24      0.00543     -0.00039      1.96357 *
 * Al             25      0.00045     -0.00076     -0.04562 *
 * Al             26     -0.00103      0.00678     -0.85756 *
 * Al             27      0.00272     -0.00360     -1.96466 *
 * Al             28      0.00077     -0.00029     -0.25300 *
 * Al             29      0.00031     -0.00070     -0.07876 *
 * Al             30      0.00073     -0.00021      0.08092 *
 * Al             31      0.00683     -0.00414     -7.33341 *
 * Al             32     -0.00697      0.00247      7.33404 *
 * Al             33      0.00068     -0.00056      0.05093 *
 * Al             34      0.00054     -0.00068      0.27313 *
 * Al             35     -0.00345      0.00078      0.86151 *
 * Al             36     -0.00159     -0.00185      1.96397 *
 * Al             37      0.00039     -0.00070     -0.04555 *
 * Al             38      0.00237     -0.00410     -0.86085 *
 * Al             39      0.00287      0.00357     -1.96082 *
 * Al             40      0.00059     -0.00036     -0.25346 *
 * Al             41      0.00032     -0.00069     -0.07873 *
 * Al             42      0.00071     -0.00040      0.08097 *
 * Al             43     -0.01064      0.00179     -7.33347 *
 * Al             44      0.01525     -0.00233      7.33272 *
 * Al             45      0.00058     -0.00044      0.05113 *
 * Al             46      0.00057     -0.00065      0.27310 *
 * Al             47      0.00674     -0.00095      0.86165 *
 * Al             48      0.00084      0.00356      1.97179 *
 * Al             49      0.00045     -0.00066     -0.04581 *
 * Al             50     -0.00979      0.01120     -0.85704 *
 * Al             51      0.00091     -0.00634     -1.95787 *
 * Al             52      0.00060     -0.00031     -0.25327 *
 * Al             53      0.00024     -0.00069     -0.07881 *
 * Al             54      0.00080     -0.00031      0.08097 *
 * Al             55     -0.01851     -0.00035     -7.33274 *
 * Al             56      0.01105      0.01052      7.33345 *
 * Al             57      0.00044     -0.00049      0.05126 *
 * Al             58      0.00051     -0.00044      0.27321 *
 * Al             59      0.00354     -0.01511      0.86093 *
 * Al             60      0.00494      0.00627      1.96483 *
 * Al             61      0.00056     -0.00063     -0.04565 *
 * Al             62     -0.00982      0.00301     -0.85879 *
 * Al             63      0.00387     -0.00706     -1.96138 *
 * Al             64      0.00056     -0.00029     -0.25316 *
 * Al             65      0.00019     -0.00063     -0.07879 *
 * Al             66      0.00061     -0.00047      0.08092 *
 * Al             67     -0.00832     -0.01075     -7.33290 *
 * Al             68     -0.00758      0.00548      7.33146 *
 * Al             69      0.00066     -0.00059      0.05100 *
 * Al             70      0.00061     -0.00061      0.27337 *
 * Al             71      0.00321     -0.00169      0.86588 *
 * Al             72     -0.00480      0.00311      1.96713 *
 * Al             73      0.00047     -0.00048     -0.04582 *
 * Al             74     -0.00323     -0.00684     -0.85389 *
 * Al             75      0.00402     -0.00541     -1.95618 *
 * Al             76      0.00051     -0.00062     -0.25332 *
 * Al             77      0.00037     -0.00073     -0.07876 *
 * Al             78      0.00068     -0.00034      0.08103 *
 * Al             79     -0.00229      0.00391     -7.33326 *
 * Al             80     -0.00003      0.01673      7.33391 *
 * Al             81      0.00062     -0.00059      0.05136 *
 * Al             82      0.00059     -0.00064      0.27349 *
 * Al             83      0.00557     -0.00332      0.85452 *
 * Al             84      0.00416      0.00606      1.96842 *
 * Al             85      0.00042     -0.00057     -0.04555 *
 * Al             86     -0.00591     -0.00372     -0.86291 *
 * Al             87     -0.00128     -0.00661     -1.95899 *
 * Al             88      0.00065     -0.00024     -0.25330 *
 * Al             89      0.00018     -0.00073     -0.07876 *
 * Al             90      0.00076     -0.00041      0.08100 *
 * Al             91     -0.01526      0.00029     -7.33483 *
 * Al             92      0.00795      0.00161      7.33214 *
 * Al             93      0.00064     -0.00039      0.05105 *
 * Al             94      0.00059     -0.00059      0.27304 *
 * Al             95      0.00505     -0.01716      0.86050 *
 * Al             96      0.00709      0.00146      1.96179 *
 * Al             97      0.00061     -0.00061     -0.04568 *
 * Al             98     -0.00996      0.00685     -0.85931 *
 * Al             99      0.00554     -0.00156     -1.96168 *
 * Al            100      0.00070     -0.00033     -0.25318 *
 * Al            101      0.00019     -0.00069     -0.07883 *
 * Al            102      0.00068     -0.00041      0.08082 *
 * Al            103      0.00354      0.00183     -7.33455 *
 * Al            104      0.00302      0.00738      7.33304 *
 * Al            105      0.00046     -0.00046      0.05125 *
 * Al            106      0.00048     -0.00056      0.27320 *
 * Al            107     -0.00081     -0.00310      0.85805 *
 * Al            108      0.00292      0.00019      1.96475 *
 *                                                          *
 ************************************************************

Writing analysis data to al3x3.castep_bin

Writing model to al3x3.check
 
 A BibTeX formatted list of references used in this run has been written to 
 al3x3.bib
 
Initialisation time =      3.20 s
Calculation time    =    508.10 s
Finalisation time   =      7.42 s
Total time          =    518.72 s
Peak Memory Use     = 1485116 kB
  
Overall parallel efficiency rating: Good (76%)                                  
  
Data was distributed by:-
G-vector (64-way); efficiency rating: Good (77%)                                
k-point (2-way); efficiency rating: Excellent (99%)                             
  
Parallel notes:
1) Calculation only took 511.4 s, so efficiency estimates may be inaccurate.    
