 +-------------------------------------------------+
 |                                                 |
 |      CCC   AA    SSS  TTTTT  EEEEE  PPPP        |
 |     C     A  A  S       T    E      P   P       |
 |     C     AAAA   SS     T    EEE    PPPP        |
 |     C     A  A     S    T    E      P           |
 |      CCC  A  A  SSS     T    EEEEE  P           |
 |                                                 |
 +-------------------------------------------------+
 |                                                 |
 | Welcome to Academic Release CASTEP version 21.11|          
 | Ab Initio Total Energy Program                  |
 |                                                 |
 | Authors:                                        |
 | M. Segall, M. Probert, C. Pickard, P. Hasnip,   |
 | S. Clark, K. Refson, J. R. Yates, M. Payne      |
 |                                                 |
 | Contributors:                                   |
 | P. Lindan, P. Haynes, J. White, V. Milman,      |
 | N. Govind, M. Gibson, P. Tulip, V. Cocula,      |
 | B. Montanari, D. Quigley, M. Glover,            |
 | L. Bernasconi, A. Perlov, M. Plummer,           |
 | E. McNellis, J. Meyer, J. Gale, D. Jochym       |
 | J. Aarons, B. Walker, R. Gillen, D. Jones       |
 | T. Green, I. J. Bush, C. J. Armstrong,          |
 | E. J. Higgins, E. L. Brown, M. S. McFly,        |
 | J. Wilkins, B-C. Shih, P. J. P. Byrne,          |
 | R. J. Maurer, J. C. Womack, J. Dziedzic,        |
 | A. Bartok-Partay, L. LeBlanc                    |
 |                                                 |
 | Copyright (c) 2000 - 2021                       |
 |                                                 |
 |     Distributed under license from Cambridge    |
 |     Enterprise for academic use only.           |
 |                                                 |
 | Please cite                                     |
 |                                                 |
 |     "First principles methods using CASTEP"     |
 |                                                 |
 |         Zeitschrift fuer Kristallographie       |
 |           220(5-6) pp. 567-570 (2005)           |
 |                                                 |
 | S. J. Clark, M. D. Segall, C. J. Pickard,       |
 | P. J. Hasnip, M. J. Probert, K. Refson,         |
 | M. C. Payne                                     |
 |                                                 |
 |       in all publications arising from          |
 |              your use of CASTEP                 |
 |                                                 |
 +-------------------------------------------------+
 |                                                 |
 |              http://www.castep.org              |
 |                                                 |
 +-------------------------------------------------+



 Compiled for linux_x86_64_gfortran10-XT on Wed, 02 Mar 2022 15:03:45 +0000
 from code version 7d4405a8a+  HEAD  Sat Nov 27 13:38:33 2021 +0000
 Compiler: GNU Fortran 11.2.0; Optimisation: fast
 MATHLIBS: LibSci (LAPACK version 3.6.1)
 FFT Lib : fftw3 version commercial-fftw-3.3.8-sse2-avx-avx2-avx2_128
 Fundamental constants values: CODATA 2014

 Run started: Fri, 04 Mar 2022 09:39:45 +0000

 Pseudo atomic calculation performed for O 2s2 2p4

 Converged in 13 iterations to a total energy of -430.9847 eV

 Pseudo atomic calculation performed for Al 3s2 3p1

 Converged in 14 iterations to a total energy of -53.3906 eV
 Calculation parallelised over 128 processes.
 Data is distributed by G-vector(64-way) and k-point(2-way)
 G-vector communication optimised for up to 2-way SMP.

 ************************************ Title ************************************
 3x3 sapphire surface benchmark (v1.1)

 ***************************** General Parameters ******************************
  
 output verbosity                               : normal  (1)
 write checkpoint data to                       : al3x3.check
 type of calculation                            : single point energy
 stress calculation                             : off
 density difference calculation                 : off
 electron localisation func (ELF) calculation   : off
 Hirshfeld analysis                             : off
 polarisation (Berry phase) analysis            : off
 molecular orbital projected DOS                : off
 deltaSCF calculation                           : off
 unlimited duration calculation
 timing information                             : on
 memory usage estimate                          : on
 write extra output files                       : on
 write final potential to formatted file        : off
 write final density to formatted file          : off
 write BibTeX reference list                    : on
 write OTFG pseudopotential files               : on
 write electrostatic potential file             : on
 write bands file                               : on
 checkpoint writing                             : both castep_bin and check files
  
 output         length unit                     : A
 output           mass unit                     : amu
 output           time unit                     : ps
 output         charge unit                     : e
 output           spin unit                     : hbar/2
 output         energy unit                     : eV
 output          force unit                     : eV/A
 output       velocity unit                     : A/ps
 output       pressure unit                     : GPa
 output     inv_length unit                     : 1/A
 output      frequency unit                     : cm-1
 output force constant unit                     : eV/A**2
 output         volume unit                     : A**3
 output   IR intensity unit                     : (D/A)**2/amu
 output         dipole unit                     : D
 output         efield unit                     : eV/A/e
 output        entropy unit                     : J/mol/K
 output    efield chi2 unit                     : pm/V
  
 wavefunctions paging                           : none
 random number generator seed                   :          1
 data distribution                              : optimal for this architecture
 optimization strategy                          : maximize speed(+++)
 num active processors in SMP node              :          2

 *********************** Exchange-Correlation Parameters ***********************
  
 using functional                               : Perdew Wang (1991)
 relativistic treatment                         : Koelling-Harmon
 DFT+D: Semi-empirical dispersion correction    : off

 ************************* Pseudopotential Parameters **************************
  
 pseudopotential representation                 : reciprocal space
 <beta|phi> representation                      : reciprocal space
 spin-orbit coupling                            : off

 **************************** Basis Set Parameters *****************************
  
 plane wave basis set cut-off                   :   400.0000   eV
 size of standard grid                          :     1.7500
 size of   fine   gmax                          :    17.9311   1/A
 finite basis set correction                    : none

 **************************** Electronic Parameters ****************************
  
 number of  electrons                           :  1296.    
 net charge of system                           :  0.000    
 treating system as non-spin-polarized
 number of bands                                :        768

 ********************* Electronic Minimization Parameters **********************
  
 Method: Treating system as metallic with density mixing treatment of electrons,
         and number of  SD  steps               :          1
         and number of  CG  steps               :          4
  
 total energy / atom convergence tol.           : 0.1500E-01   eV
 eigen-energy convergence tolerance             : 0.1000E-05   eV
 max force / atom convergence tol.              : ignored
 convergence tolerance window                   :          3   cycles
 max. number of SCF cycles                      :         40
 smearing scheme                                : Gaussian
 smearing width                                 : 0.1000       eV
 Fermi energy convergence tolerance             : 0.2721E-13   eV
 periodic dipole correction                     : NONE

 ************************** Density Mixing Parameters **************************
  
 density-mixing scheme                          : Pulay
 max. length of mixing history                  :         20
 charge density mixing amplitude                : 0.8000    
 cut-off energy for mixing                      :  400.0       eV

 *******************************************************************************
  

                           -------------------------------
                                      Unit Cell
                           -------------------------------
        Real Lattice(A)                      Reciprocal Lattice(1/A)
    12.3642447    -7.1385000     0.0000000        0.508173808   0.000000000   0.000000000
     0.0000000    14.2770000     0.0000000        0.254086904   0.440091427   0.000000000
     0.0000000     0.0000000    27.5000000        0.000000000   0.000000000   0.228479466

                       Lattice parameters(A)       Cell Angles
                    a =     14.277000          alpha =   90.000000
                    b =     14.277000          beta  =   90.000000
                    c =     27.500000          gamma =  120.000000

                       Current cell volume =          4854.418839       A**3
                                   density =             1.134206   AMU/A**3
                                           =             1.883393     g/cm^3

                           -------------------------------
                                     Cell Contents
                           -------------------------------
                         Total number of ions in cell =  270
                      Total number of species in cell =    2
                        Max number of any one species =  162

            xxxxxxxxxxxxxxxxxxxxxxxxxxxxxxxxxxxxxxxxxxxxxxxxxxxxxxxxxxxx
            x  Element    Atom        Fractional coordinates of atoms  x
            x            Number           u          v          w      x
            x----------------------------------------------------------x
            x  O            1         0.102000   0.000000   0.645700   x 
            x  O            2         0.000000   0.102000   0.645700   x 
            x  O            3         0.231333   0.231333   0.645700   x 
            x  O            4         0.009111   0.222222   0.724433   x 
            x  O            5         0.111111   0.120222   0.724433   x 
            x  O            6         0.213111   0.324222   0.724433   x 
            x  O            7         0.120222   0.111111   0.566967   x 
            x  O            8         0.222222   0.009111   0.566967   x 
            x  O            9         0.324222   0.213111   0.566967   x 
            x  O           10         0.324222   0.111111   0.803167   x 
            x  O           11         0.222222   0.213111   0.803167   x 
            x  O           12         0.120222   0.009111   0.803167   x 
            x  O           13         0.213111   0.222222   0.960633   x 
            x  O           14         0.111111   0.324222   0.960633   x 
            x  O           15         0.009111   0.120222   0.960633   x 
            x  O           16         0.231333   0.000000   0.881900   x 
            x  O           17         0.000000   0.231333   0.881900   x 
            x  O           18         0.102000   0.102000   0.881900   x 
            x  O           19         0.102000   0.333333   0.645700   x 
            x  O           20         0.000000   0.435333   0.645700   x 
            x  O           21         0.231333   0.564667   0.645700   x 
            x  O           22         0.009111   0.555556   0.724433   x 
            x  O           23         0.111111   0.453556   0.724433   x 
            x  O           24         0.213111   0.657556   0.724433   x 
            x  O           25         0.120222   0.444444   0.566967   x 
            x  O           26         0.222222   0.342444   0.566967   x 
            x  O           27         0.324222   0.546444   0.566967   x 
            x  O           28         0.324222   0.444444   0.803167   x 
            x  O           29         0.222222   0.546444   0.803167   x 
            x  O           30         0.120222   0.342444   0.803167   x 
            x  O           31         0.213111   0.555556   0.960633   x 
            x  O           32         0.111111   0.657556   0.960633   x 
            x  O           33         0.009111   0.453556   0.960633   x 
            x  O           34         0.231333   0.333333   0.881900   x 
            x  O           35         0.000000   0.564667   0.881900   x 
            x  O           36         0.102000   0.435333   0.881900   x 
            x  O           37         0.102000   0.666667   0.645700   x 
            x  O           38         0.000000   0.768667   0.645700   x 
            x  O           39         0.231333   0.898000   0.645700   x 
            x  O           40         0.009111   0.888889   0.724433   x 
            x  O           41         0.111111   0.786889   0.724433   x 
            x  O           42         0.213111   0.990889   0.724433   x 
            x  O           43         0.120222   0.777778   0.566967   x 
            x  O           44         0.222222   0.675778   0.566967   x 
            x  O           45         0.324222   0.879778   0.566967   x 
            x  O           46         0.324222   0.777778   0.803167   x 
            x  O           47         0.222222   0.879778   0.803167   x 
            x  O           48         0.120222   0.675778   0.803167   x 
            x  O           49         0.213111   0.888889   0.960633   x 
            x  O           50         0.111111   0.990889   0.960633   x 
            x  O           51         0.009111   0.786889   0.960633   x 
            x  O           52         0.231333   0.666667   0.881900   x 
            x  O           53         0.000000   0.898000   0.881900   x 
            x  O           54         0.102000   0.768667   0.881900   x 
            x  O           55         0.435333   0.000000   0.645700   x 
            x  O           56         0.333333   0.102000   0.645700   x 
            x  O           57         0.564667   0.231333   0.645700   x 
            x  O           58         0.342444   0.222222   0.724433   x 
            x  O           59         0.444444   0.120222   0.724433   x 
            x  O           60         0.546444   0.324222   0.724433   x 
            x  O           61         0.453556   0.111111   0.566967   x 
            x  O           62         0.555556   0.009111   0.566967   x 
            x  O           63         0.657556   0.213111   0.566967   x 
            x  O           64         0.657556   0.111111   0.803167   x 
            x  O           65         0.555556   0.213111   0.803167   x 
            x  O           66         0.453556   0.009111   0.803167   x 
            x  O           67         0.546444   0.222222   0.960633   x 
            x  O           68         0.444444   0.324222   0.960633   x 
            x  O           69         0.342444   0.120222   0.960633   x 
            x  O           70         0.564667   0.000000   0.881900   x 
            x  O           71         0.333333   0.231333   0.881900   x 
            x  O           72         0.435333   0.102000   0.881900   x 
            x  O           73         0.435333   0.333333   0.645700   x 
            x  O           74         0.333333   0.435333   0.645700   x 
            x  O           75         0.564667   0.564667   0.645700   x 
            x  O           76         0.342444   0.555556   0.724433   x 
            x  O           77         0.444444   0.453556   0.724433   x 
            x  O           78         0.546444   0.657556   0.724433   x 
            x  O           79         0.453556   0.444444   0.566967   x 
            x  O           80         0.555556   0.342444   0.566967   x 
            x  O           81         0.657556   0.546444   0.566967   x 
            x  O           82         0.657556   0.444444   0.803167   x 
            x  O           83         0.555556   0.546444   0.803167   x 
            x  O           84         0.453556   0.342444   0.803167   x 
            x  O           85         0.546444   0.555556   0.960633   x 
            x  O           86         0.444444   0.657556   0.960633   x 
            x  O           87         0.342444   0.453556   0.960633   x 
            x  O           88         0.564667   0.333333   0.881900   x 
            x  O           89         0.333333   0.564667   0.881900   x 
            x  O           90         0.435333   0.435333   0.881900   x 
            x  O           91         0.435333   0.666667   0.645700   x 
            x  O           92         0.333333   0.768667   0.645700   x 
            x  O           93         0.564667   0.898000   0.645700   x 
            x  O           94         0.342444   0.888889   0.724433   x 
            x  O           95         0.444444   0.786889   0.724433   x 
            x  O           96         0.546444   0.990889   0.724433   x 
            x  O           97         0.453556   0.777778   0.566967   x 
            x  O           98         0.555556   0.675778   0.566967   x 
            x  O           99         0.657556   0.879778   0.566967   x 
            x  O          100         0.657556   0.777778   0.803167   x 
            x  O          101         0.555556   0.879778   0.803167   x 
            x  O          102         0.453556   0.675778   0.803167   x 
            x  O          103         0.546444   0.888889   0.960633   x 
            x  O          104         0.444444   0.990889   0.960633   x 
            x  O          105         0.342444   0.786889   0.960633   x 
            x  O          106         0.564667   0.666667   0.881900   x 
            x  O          107         0.333333   0.898000   0.881900   x 
            x  O          108         0.435333   0.768667   0.881900   x 
            x  O          109         0.768667   0.000000   0.645700   x 
            x  O          110         0.666667   0.102000   0.645700   x 
            x  O          111         0.898000   0.231333   0.645700   x 
            x  O          112         0.675778   0.222222   0.724433   x 
            x  O          113         0.777778   0.120222   0.724433   x 
            x  O          114         0.879778   0.324222   0.724433   x 
            x  O          115         0.786889   0.111111   0.566967   x 
            x  O          116         0.888889   0.009111   0.566967   x 
            x  O          117         0.990889   0.213111   0.566967   x 
            x  O          118         0.990889   0.111111   0.803167   x 
            x  O          119         0.888889   0.213111   0.803167   x 
            x  O          120         0.786889   0.009111   0.803167   x 
            x  O          121         0.879778   0.222222   0.960633   x 
            x  O          122         0.777778   0.324222   0.960633   x 
            x  O          123         0.675778   0.120222   0.960633   x 
            x  O          124         0.898000   0.000000   0.881900   x 
            x  O          125         0.666667   0.231333   0.881900   x 
            x  O          126         0.768667   0.102000   0.881900   x 
            x  O          127         0.768667   0.333333   0.645700   x 
            x  O          128         0.666667   0.435333   0.645700   x 
            x  O          129         0.898000   0.564667   0.645700   x 
            x  O          130         0.675778   0.555556   0.724433   x 
            x  O          131         0.777778   0.453556   0.724433   x 
            x  O          132         0.879778   0.657556   0.724433   x 
            x  O          133         0.786889   0.444444   0.566967   x 
            x  O          134         0.888889   0.342444   0.566967   x 
            x  O          135         0.990889   0.546444   0.566967   x 
            x  O          136         0.990889   0.444444   0.803167   x 
            x  O          137         0.888889   0.546444   0.803167   x 
            x  O          138         0.786889   0.342444   0.803167   x 
            x  O          139         0.879778   0.555556   0.960633   x 
            x  O          140         0.777778   0.657556   0.960633   x 
            x  O          141         0.675778   0.453556   0.960633   x 
            x  O          142         0.898000   0.333333   0.881900   x 
            x  O          143         0.666667   0.564667   0.881900   x 
            x  O          144         0.768667   0.435333   0.881900   x 
            x  O          145         0.768667   0.666667   0.645700   x 
            x  O          146         0.666667   0.768667   0.645700   x 
            x  O          147         0.898000   0.898000   0.645700   x 
            x  O          148         0.675778   0.888889   0.724433   x 
            x  O          149         0.777778   0.786889   0.724433   x 
            x  O          150         0.879778   0.990889   0.724433   x 
            x  O          151         0.786889   0.777778   0.566967   x 
            x  O          152         0.888889   0.675778   0.566967   x 
            x  O          153         0.990889   0.879778   0.566967   x 
            x  O          154         0.990889   0.777778   0.803167   x 
            x  O          155         0.888889   0.879778   0.803167   x 
            x  O          156         0.786889   0.675778   0.803167   x 
            x  O          157         0.879778   0.888889   0.960633   x 
            x  O          158         0.777778   0.990889   0.960633   x 
            x  O          159         0.675778   0.786889   0.960633   x 
            x  O          160         0.898000   0.666667   0.881900   x 
            x  O          161         0.666667   0.898000   0.881900   x 
            x  O          162         0.768667   0.768667   0.881900   x 
            x  Al           1         0.000000   0.000000   0.693885   x 
            x  Al           2         0.000000   0.000000   0.597515   x 
            x  Al           3         0.222222   0.111111   0.615151   x 
            x  Al           4         0.111111   0.222222   0.676249   x 
            x  Al           5         0.222222   0.111111   0.754982   x 
            x  Al           6         0.111111   0.222222   0.772618   x 
            x  Al           7         0.222222   0.111111   0.991182   x 
            x  Al           8         0.111111   0.222222   0.536418   x 
            x  Al           9         0.000000   0.000000   0.833715   x 
            x  Al          10         0.222222   0.111111   0.851351   x 
            x  Al          11         0.000000   0.000000   0.930085   x 
            x  Al          12         0.111111   0.222222   0.912449   x 
            x  Al          13         0.000000   0.333333   0.693885   x 
            x  Al          14         0.000000   0.333333   0.597515   x 
            x  Al          15         0.222222   0.444444   0.615151   x 
            x  Al          16         0.111111   0.555556   0.676249   x 
            x  Al          17         0.222222   0.444444   0.754982   x 
            x  Al          18         0.111111   0.555556   0.772618   x 
            x  Al          19         0.222222   0.444444   0.991182   x 
            x  Al          20         0.111111   0.555556   0.536418   x 
            x  Al          21         0.000000   0.333333   0.833715   x 
            x  Al          22         0.222222   0.444444   0.851351   x 
            x  Al          23         0.000000   0.333333   0.930085   x 
            x  Al          24         0.111111   0.555556   0.912449   x 
            x  Al          25         0.000000   0.666667   0.693885   x 
            x  Al          26         0.000000   0.666667   0.597515   x 
            x  Al          27         0.222222   0.777778   0.615151   x 
            x  Al          28         0.111111   0.888889   0.676249   x 
            x  Al          29         0.222222   0.777778   0.754982   x 
            x  Al          30         0.111111   0.888889   0.772618   x 
            x  Al          31         0.222222   0.777778   0.991182   x 
            x  Al          32         0.111111   0.888889   0.536418   x 
            x  Al          33         0.000000   0.666667   0.833715   x 
            x  Al          34         0.222222   0.777778   0.851351   x 
            x  Al          35         0.000000   0.666667   0.930085   x 
            x  Al          36         0.111111   0.888889   0.912449   x 
            x  Al          37         0.333333   0.000000   0.693885   x 
            x  Al          38         0.333333   0.000000   0.597515   x 
            x  Al          39         0.555556   0.111111   0.615151   x 
            x  Al          40         0.444444   0.222222   0.676249   x 
            x  Al          41         0.555556   0.111111   0.754982   x 
            x  Al          42         0.444444   0.222222   0.772618   x 
            x  Al          43         0.555556   0.111111   0.991182   x 
            x  Al          44         0.444444   0.222222   0.536418   x 
            x  Al          45         0.333333   0.000000   0.833715   x 
            x  Al          46         0.555556   0.111111   0.851351   x 
            x  Al          47         0.333333   0.000000   0.930085   x 
            x  Al          48         0.444444   0.222222   0.912449   x 
            x  Al          49         0.333333   0.333333   0.693885   x 
            x  Al          50         0.333333   0.333333   0.597515   x 
            x  Al          51         0.555556   0.444444   0.615151   x 
            x  Al          52         0.444444   0.555556   0.676249   x 
            x  Al          53         0.555556   0.444444   0.754982   x 
            x  Al          54         0.444444   0.555556   0.772618   x 
            x  Al          55         0.555556   0.444444   0.991182   x 
            x  Al          56         0.444444   0.555556   0.536418   x 
            x  Al          57         0.333333   0.333333   0.833715   x 
            x  Al          58         0.555556   0.444444   0.851351   x 
            x  Al          59         0.333333   0.333333   0.930085   x 
            x  Al          60         0.444444   0.555556   0.912449   x 
            x  Al          61         0.333333   0.666667   0.693885   x 
            x  Al          62         0.333333   0.666667   0.597515   x 
            x  Al          63         0.555556   0.777778   0.615151   x 
            x  Al          64         0.444444   0.888889   0.676249   x 
            x  Al          65         0.555556   0.777778   0.754982   x 
            x  Al          66         0.444444   0.888889   0.772618   x 
            x  Al          67         0.555556   0.777778   0.991182   x 
            x  Al          68         0.444444   0.888889   0.536418   x 
            x  Al          69         0.333333   0.666667   0.833715   x 
            x  Al          70         0.555556   0.777778   0.851351   x 
            x  Al          71         0.333333   0.666667   0.930085   x 
            x  Al          72         0.444444   0.888889   0.912449   x 
            x  Al          73         0.666667   0.000000   0.693885   x 
            x  Al          74         0.666667   0.000000   0.597515   x 
            x  Al          75         0.888889   0.111111   0.615151   x 
            x  Al          76         0.777778   0.222222   0.676249   x 
            x  Al          77         0.888889   0.111111   0.754982   x 
            x  Al          78         0.777778   0.222222   0.772618   x 
            x  Al          79         0.888889   0.111111   0.991182   x 
            x  Al          80         0.777778   0.222222   0.536418   x 
            x  Al          81         0.666667   0.000000   0.833715   x 
            x  Al          82         0.888889   0.111111   0.851351   x 
            x  Al          83         0.666667   0.000000   0.930085   x 
            x  Al          84         0.777778   0.222222   0.912449   x 
            x  Al          85         0.666667   0.333333   0.693885   x 
            x  Al          86         0.666667   0.333333   0.597515   x 
            x  Al          87         0.888889   0.444444   0.615151   x 
            x  Al          88         0.777778   0.555556   0.676249   x 
            x  Al          89         0.888889   0.444444   0.754982   x 
            x  Al          90         0.777778   0.555556   0.772618   x 
            x  Al          91         0.888889   0.444444   0.991182   x 
            x  Al          92         0.777778   0.555556   0.536418   x 
            x  Al          93         0.666667   0.333333   0.833715   x 
            x  Al          94         0.888889   0.444444   0.851351   x 
            x  Al          95         0.666667   0.333333   0.930085   x 
            x  Al          96         0.777778   0.555556   0.912449   x 
            x  Al          97         0.666667   0.666667   0.693885   x 
            x  Al          98         0.666667   0.666667   0.597515   x 
            x  Al          99         0.888889   0.777778   0.615151   x 
            x  Al         100         0.777778   0.888889   0.676249   x 
            x  Al         101         0.888889   0.777778   0.754982   x 
            x  Al         102         0.777778   0.888889   0.772618   x 
            x  Al         103         0.888889   0.777778   0.991182   x 
            x  Al         104         0.777778   0.888889   0.536418   x 
            x  Al         105         0.666667   0.666667   0.833715   x 
            x  Al         106         0.888889   0.777778   0.851351   x 
            x  Al         107         0.666667   0.666667   0.930085   x 
            x  Al         108         0.777778   0.888889   0.912449   x 
            xxxxxxxxxxxxxxxxxxxxxxxxxxxxxxxxxxxxxxxxxxxxxxxxxxxxxxxxxxxx


                         No user defined ionic velocities

                           -------------------------------
                                   Details of Species
                           -------------------------------

                               Mass of species in AMU
                                    O   15.9994000
                                    Al   26.9815400

                          Electric Quadrupole Moment (Barn)
                                    O   -0.0255800 Isotope 17
                                    Al    0.1466000 Isotope 27

                          Files used for pseudopotentials:
                                    O O_00.usp
                                    Al Al_00.usp

                           -------------------------------
                              k-Points For BZ Sampling
                           -------------------------------
                       MP grid size for SCF calculation is  2  2  1
                            with an offset of   0.000  0.000  0.000
                       Number of kpoints used =             2

                           -------------------------------
                               Symmetry and Constraints
                           -------------------------------

                      Cell is a supercell containing 9 primitive cells
                      Maximum deviation from symmetry =  0.00000         ANG

                      Number of symmetry operations   =           1
                      Number of ionic constraints     =           3
                      Point group of crystal =     1: C1, 1, 1
                      Space group of crystal =   147: P-3, -P 3

             Set iprint > 1 for details on symmetry rotations/translations

                         Centre of mass is constrained
             Set iprint > 1 for details of linear ionic constraints

                         Number of cell constraints= 0
                         Cell constraints are:  1 2 3 4 5 6

                         External pressure/stress (GPa)
                          0.00000   0.00000   0.00000
                                    0.00000   0.00000
                                              0.00000
  
+---------------- MEMORY AND SCRATCH DISK ESTIMATES PER PROCESS --------------+
|                                                     Memory          Disk    |
| Baseline code, static data and system overhead      730.0 MB         0.0 MB |
| BLAS internal memory storage                          0.0 MB         0.0 MB |
| Model and support data                              115.9 MB         0.0 MB |
| Electronic energy minimisation requirements          81.0 MB         0.0 MB |
| Force calculation requirements                        3.3 MB         0.0 MB |
|                                               ----------------------------- |
| Approx. total storage required per process          926.9 MB         0.0 MB |
|                                                                             |
| Requirements will fluctuate during execution and may exceed these estimates |
+-----------------------------------------------------------------------------+
Calculating approximate eigenstates for fixed initial Hamiltonian
Cut-off for approx. calculation is  155.625 eV
Improving approx. states at cut-off of  200.000 eV
Resetting cut-off to  400.000 eV
Calculating total energy with cut-off of  400.000 eV.
------------------------------------------------------------------------ <-- SCF
SCF loop      Energy           Fermi           Energy gain       Timer   <-- SCF
                               energy          per atom          (sec)   <-- SCF
------------------------------------------------------------------------ <-- SCF
Initial  -7.61261956E+004  0.00000000E+000                       214.64  <-- SCF
      1  -7.79035264E+004  1.71446052E+000   6.58270681E+000     239.03  <-- SCF
      2  -7.79104229E+004  1.71924306E+000   2.55425520E-002     264.35  <-- SCF
      3  -7.78188296E+004  1.84814993E+000  -3.39234281E-001     291.46  <-- SCF
      4  -7.77199042E+004  1.30434445E+000  -3.66390563E-001     320.08  <-- SCF
      5  -7.77148462E+004  1.11487654E+000  -1.87332572E-002     349.29  <-- SCF
      6  -7.77125653E+004  1.04424817E+000  -8.44762520E-003     378.22  <-- SCF
      7  -7.77102389E+004  1.02666868E+000  -8.61630935E-003     405.63  <-- SCF
      8  -7.77081458E+004  9.90606550E-001  -7.75251179E-003     434.11  <-- SCF
      9  -7.77060031E+004  1.09932215E+000  -7.93578454E-003     462.21  <-- SCF
     10  -7.77051703E+004  1.16176133E+000  -3.08442988E-003     488.85  <-- SCF
------------------------------------------------------------------------ <-- SCF
 
Final energy, E             =  -77705.17030703     eV
Final free energy (E-TS)    =  -77705.17030704     eV
(energies not corrected for finite basis set)
 
NB est. 0K energy (E-0.5TS)      =  -77705.17030703     eV
 

Writing analysis data to al3x3.castep_bin

Writing model to al3x3.check

 ************************** Forces **************************
 *                                                          *
 *               Cartesian components (eV/A)                *
 * -------------------------------------------------------- *
 *                         x            y            z      *
 *                                                          *
 * O               1      0.16838      0.02128      0.72228 *
 * O               2     -0.10297      0.12973      0.71830 *
 * O               3     -0.06234     -0.15233      0.72511 *
 * O               4     -0.10788      0.03203      0.30140 *
 * O               5      0.01939     -0.10967      0.30312 *
 * O               6      0.08890      0.07459      0.30206 *
 * O               7     -1.64505      1.74392     -1.02051 *
 * O               8     -0.68446     -2.29149     -1.03042 *
 * O               9      2.34541      0.55375     -1.02309 *
 * O              10      0.09015     -0.02690     -0.30870 *
 * O              11     -0.01799      0.09076     -0.31346 *
 * O              12     -0.06974     -0.06417     -0.30926 *
 * O              13      1.62748     -1.73492      0.97756 *
 * O              14      0.69562      2.28401      0.98130 *
 * O              15     -2.33635     -0.54363      0.97585 *
 * O              16     -0.17590     -0.01389     -0.67466 *
 * O              17      0.09689     -0.14422     -0.66875 *
 * O              18      0.07695      0.15438     -0.67289 *
 * O              19      0.17091      0.02230      0.72104 *
 * O              20     -0.10410      0.13110      0.71865 *
 * O              21     -0.06452     -0.15427      0.72061 *
 * O              22     -0.10640      0.03234      0.30138 *
 * O              23      0.01960     -0.10947      0.30417 *
 * O              24      0.08938      0.07446      0.30122 *
 * O              25     -1.63891      1.73699     -1.02038 *
 * O              26     -0.67434     -2.26502     -1.03719 *
 * O              27      2.32059      0.54981     -1.02591 *
 * O              28      0.09213     -0.02659     -0.30903 *
 * O              29     -0.01907      0.09155     -0.31161 *
 * O              30     -0.06985     -0.06463     -0.30892 *
 * O              31      1.62784     -1.73846      0.97976 *
 * O              32      0.69851      2.29372      0.97209 *
 * O              33     -2.34309     -0.54564      0.97048 *
 * O              34     -0.17822     -0.01341     -0.67331 *
 * O              35      0.09724     -0.14311     -0.67012 *
 * O              36      0.07800      0.15360     -0.67007 *
 * O              37      0.17044      0.02134      0.72242 *
 * O              38     -0.10170      0.13164      0.71716 *
 * O              39     -0.06261     -0.15657      0.72194 *
 * O              40     -0.10798      0.03238      0.30097 *
 * O              41      0.01874     -0.10989      0.30398 *
 * O              42      0.09067      0.07512      0.30208 *
 * O              43     -1.63299      1.72868     -1.02398 *
 * O              44     -0.67702     -2.26852     -1.03503 *
 * O              45      2.30741      0.54854     -1.03655 *
 * O              46      0.09154     -0.02552     -0.30969 *
 * O              47     -0.01773      0.09173     -0.31175 *
 * O              48     -0.07035     -0.06421     -0.30990 *
 * O              49      1.63608     -1.75046      0.96794 *
 * O              50      0.69796      2.29775      0.97094 *
 * O              51     -2.31826     -0.54283      0.98222 *
 * O              52     -0.17651     -0.01138     -0.67126 *
 * O              53      0.09631     -0.14473     -0.66896 *
 * O              54      0.07669      0.15475     -0.67037 *
 * O              55      0.16772      0.02218      0.72342 *
 * O              56     -0.10235      0.13040      0.72032 *
 * O              57     -0.06274     -0.15560      0.72027 *
 * O              58     -0.10620      0.03370      0.30236 *
 * O              59      0.01854     -0.11119      0.30423 *
 * O              60      0.08954      0.07616      0.30107 *
 * O              61     -1.63284      1.73287     -1.02825 *
 * O              62     -0.69044     -2.29864     -1.02393 *
 * O              63      2.29791      0.54528     -1.03789 *
 * O              64      0.09063     -0.02664     -0.30901 *
 * O              65     -0.01740      0.09059     -0.31283 *
 * O              66     -0.07096     -0.06350     -0.30901 *
 * O              67      1.62928     -1.73720      0.97281 *
 * O              68      0.68731      2.26408      0.98433 *
 * O              69     -2.31990     -0.53860      0.97367 *
 * O              70     -0.17791     -0.01139     -0.67477 *
 * O              71      0.09974     -0.14482     -0.66599 *
 * O              72      0.07589      0.15604     -0.67041 *
 * O              73      0.17050      0.02065      0.72404 *
 * O              74     -0.10433      0.12940      0.71972 *
 * O              75     -0.06486     -0.15494      0.72191 *
 * O              76     -0.10688      0.03222      0.30114 *
 * O              77      0.01789     -0.10984      0.30334 *
 * O              78      0.08997      0.07505      0.30111 *
 * O              79     -1.64273      1.74102     -1.02063 *
 * O              80     -0.68029     -2.27294     -1.03887 *
 * O              81      2.33319      0.55165     -1.02631 *
 * O              82      0.09115     -0.02818     -0.31034 *
 * O              83     -0.01871      0.09207     -0.31102 *
 * O              84     -0.07035     -0.06432     -0.30940 *
 * O              85      1.63619     -1.74271      0.97378 *
 * O              86      0.69299      2.27093      0.98177 *
 * O              87     -2.35179     -0.54131      0.96412 *
 * O              88     -0.18101     -0.01228     -0.67196 *
 * O              89      0.09596     -0.14366     -0.66847 *
 * O              90      0.07746      0.15412     -0.67257 *
 * O              91      0.17096      0.02120      0.72331 *
 * O              92     -0.10527      0.13206      0.71778 *
 * O              93     -0.06270     -0.15728      0.72317 *
 * O              94     -0.10828      0.03170      0.30162 *
 * O              95      0.01783     -0.11009      0.30459 *
 * O              96      0.09100      0.07539      0.30282 *
 * O              97     -1.64323      1.74717     -1.01821 *
 * O              98     -0.67182     -2.26630     -1.04134 *
 * O              99      2.31707      0.54993     -1.03232 *
 * O             100      0.09046     -0.02629     -0.30946 *
 * O             101     -0.01852      0.09103     -0.31139 *
 * O             102     -0.07033     -0.06331     -0.30901 *
 * O             103      1.64386     -1.76051      0.96185 *
 * O             104      0.69018      2.27294      0.98215 *
 * O             105     -2.31558     -0.53945      0.98177 *
 * O             106     -0.17799     -0.01157     -0.67356 *
 * O             107      0.09814     -0.14496     -0.66749 *
 * O             108      0.07684      0.15422     -0.67089 *
 * O             109      0.16935      0.02059      0.72543 *
 * O             110     -0.10305      0.13372      0.72184 *
 * O             111     -0.06323     -0.15444      0.72265 *
 * O             112     -0.10701      0.03305      0.30175 *
 * O             113      0.01926     -0.11011      0.30334 *
 * O             114      0.08872      0.07555      0.30169 *
 * O             115     -1.64846      1.74746     -1.01868 *
 * O             116     -0.67788     -2.27898     -1.03764 *
 * O             117      2.32470      0.54978     -1.02739 *
 * O             118      0.09100     -0.02702     -0.30951 *
 * O             119     -0.01789      0.09137     -0.31299 *
 * O             120     -0.06916     -0.06372     -0.30837 *
 * O             121      1.63227     -1.73816      0.97495 *
 * O             122      0.68526      2.26525      0.98362 *
 * O             123     -2.33924     -0.54619      0.96895 *
 * O             124     -0.17741     -0.01286     -0.67363 *
 * O             125      0.09910     -0.14372     -0.66894 *
 * O             126      0.07852      0.15340     -0.66946 *
 * O             127      0.16953      0.02091      0.72166 *
 * O             128     -0.10322      0.12921      0.71699 *
 * O             129     -0.06437     -0.15550      0.72316 *
 * O             130     -0.10764      0.03273      0.30284 *
 * O             131      0.01896     -0.10984      0.30354 *
 * O             132      0.08961      0.07554      0.30029 *
 * O             133     -1.63838      1.73910     -1.02540 *
 * O             134     -0.67576     -2.26962     -1.03864 *
 * O             135      2.33467      0.55320     -1.02644 *
 * O             136      0.09077     -0.02657     -0.31090 *
 * O             137     -0.01746      0.09063     -0.31283 *
 * O             138     -0.07129     -0.06458     -0.30848 *
 * O             139      1.62993     -1.73511      0.97933 *
 * O             140      0.69780      2.29408      0.97549 *
 * O             141     -2.35450     -0.54471      0.96325 *
 * O             142     -0.17719     -0.01112     -0.67072 *
 * O             143      0.09697     -0.14339     -0.67174 *
 * O             144      0.07945      0.15139     -0.67114 *
 * O             145      0.17049      0.02103      0.72435 *
 * O             146     -0.10354      0.13107      0.71736 *
 * O             147     -0.06145     -0.15503      0.71844 *
 * O             148     -0.10834      0.03333      0.30105 *
 * O             149      0.01699     -0.10944      0.30436 *
 * O             150      0.09041      0.07279      0.30203 *
 * O             151     -1.64148      1.74343     -1.01818 *
 * O             152     -0.68184     -2.28092     -1.03311 *
 * O             153      2.30066      0.54754     -1.03694 *
 * O             154      0.09105     -0.02593     -0.30847 *
 * O             155     -0.01663      0.09146     -0.31260 *
 * O             156     -0.06963     -0.06466     -0.30859 *
 * O             157      1.63275     -1.74048      0.97619 *
 * O             158      0.69539      2.29118      0.97793 *
 * O             159     -2.33411     -0.53982      0.97726 *
 * O             160     -0.17703     -0.01160     -0.67049 *
 * O             161      0.09829     -0.14442     -0.67254 *
 * O             162      0.07704      0.15334     -0.67201 *
 * Al              1      0.00030     -0.00053     -0.04559 *
 * Al              2     -0.00694     -0.00663     -0.86092 *
 * Al              3     -0.00089     -0.00388     -1.95237 *
 * Al              4      0.00064     -0.00049     -0.25331 *
 * Al              5      0.00020     -0.00080     -0.07876 *
 * Al              6      0.00073     -0.00020      0.08115 *
 * Al              7      0.00492      0.00446     -7.33359 *
 * Al              8      0.01078      0.01054      7.33379 *
 * Al              9      0.00064     -0.00041      0.05122 *
 * Al             10      0.00053     -0.00065      0.27303 *
 * Al             11     -0.00391     -0.00250      0.85790 *
 * Al             12      0.00376      0.00028      1.96598 *
 * Al             13      0.00033     -0.00079     -0.04547 *
 * Al             14     -0.00638      0.00391     -0.86034 *
 * Al             15      0.00088     -0.00703     -1.96203 *
 * Al             16      0.00064     -0.00017     -0.25315 *
 * Al             17      0.00014     -0.00062     -0.07861 *
 * Al             18      0.00076     -0.00033      0.08104 *
 * Al             19     -0.00960      0.00766     -7.33219 *
 * Al             20      0.01423      0.00372      7.33237 *
 * Al             21      0.00079     -0.00066      0.05109 *
 * Al             22      0.00048     -0.00059      0.27325 *
 * Al             23     -0.00101     -0.00802      0.85802 *
 * Al             24      0.00543     -0.00038      1.96348 *
 * Al             25      0.00045     -0.00077     -0.04553 *
 * Al             26     -0.00102      0.00692     -0.85750 *
 * Al             27      0.00268     -0.00355     -1.96458 *
 * Al             28      0.00076     -0.00030     -0.25292 *
 * Al             29      0.00032     -0.00069     -0.07877 *
 * Al             30      0.00073     -0.00020      0.08093 *
 * Al             31      0.00677     -0.00403     -7.33341 *
 * Al             32     -0.00686      0.00241      7.33405 *
 * Al             33      0.00067     -0.00055      0.05084 *
 * Al             34      0.00054     -0.00068      0.27304 *
 * Al             35     -0.00357      0.00074      0.86150 *
 * Al             36     -0.00157     -0.00187      1.96394 *
 * Al             37      0.00039     -0.00070     -0.04546 *
 * Al             38      0.00242     -0.00402     -0.86084 *
 * Al             39      0.00286      0.00360     -1.96085 *
 * Al             40      0.00059     -0.00036     -0.25338 *
 * Al             41      0.00031     -0.00069     -0.07874 *
 * Al             42      0.00070     -0.00040      0.08098 *
 * Al             43     -0.01060      0.00176     -7.33350 *
 * Al             44      0.01533     -0.00249      7.33271 *
 * Al             45      0.00058     -0.00043      0.05103 *
 * Al             46      0.00056     -0.00064      0.27302 *
 * Al             47      0.00672     -0.00093      0.86166 *
 * Al             48      0.00082      0.00354      1.97179 *
 * Al             49      0.00045     -0.00065     -0.04570 *
 * Al             50     -0.00984      0.01128     -0.85693 *
 * Al             51      0.00093     -0.00634     -1.95778 *
 * Al             52      0.00060     -0.00031     -0.25319 *
 * Al             53      0.00023     -0.00069     -0.07883 *
 * Al             54      0.00078     -0.00031      0.08096 *
 * Al             55     -0.01854     -0.00025     -7.33275 *
 * Al             56      0.01093      0.01060      7.33346 *
 * Al             57      0.00042     -0.00048      0.05116 *
 * Al             58      0.00052     -0.00044      0.27313 *
 * Al             59      0.00349     -0.01520      0.86087 *
 * Al             60      0.00500      0.00626      1.96479 *
 * Al             61      0.00055     -0.00062     -0.04558 *
 * Al             62     -0.00975      0.00290     -0.85872 *
 * Al             63      0.00384     -0.00704     -1.96130 *
 * Al             64      0.00056     -0.00030     -0.25309 *
 * Al             65      0.00019     -0.00063     -0.07879 *
 * Al             66      0.00061     -0.00047      0.08093 *
 * Al             67     -0.00828     -0.01076     -7.33291 *
 * Al             68     -0.00753      0.00548      7.33146 *
 * Al             69      0.00066     -0.00058      0.05091 *
 * Al             70      0.00060     -0.00060      0.27329 *
 * Al             71      0.00323     -0.00173      0.86578 *
 * Al             72     -0.00479      0.00314      1.96707 *
 * Al             73      0.00046     -0.00048     -0.04574 *
 * Al             74     -0.00321     -0.00674     -0.85384 *
 * Al             75      0.00405     -0.00530     -1.95618 *
 * Al             76      0.00051     -0.00062     -0.25324 *
 * Al             77      0.00036     -0.00073     -0.07876 *
 * Al             78      0.00071     -0.00034      0.08103 *
 * Al             79     -0.00219      0.00381     -7.33327 *
 * Al             80     -0.00016      0.01663      7.33392 *
 * Al             81      0.00062     -0.00061      0.05127 *
 * Al             82      0.00059     -0.00063      0.27340 *
 * Al             83      0.00558     -0.00326      0.85449 *
 * Al             84      0.00409      0.00601      1.96834 *
 * Al             85      0.00041     -0.00057     -0.04547 *
 * Al             86     -0.00583     -0.00374     -0.86290 *
 * Al             87     -0.00137     -0.00655     -1.95891 *
 * Al             88      0.00066     -0.00023     -0.25324 *
 * Al             89      0.00019     -0.00073     -0.07878 *
 * Al             90      0.00075     -0.00042      0.08101 *
 * Al             91     -0.01523      0.00049     -7.33484 *
 * Al             92      0.00803      0.00154      7.33218 *
 * Al             93      0.00065     -0.00039      0.05096 *
 * Al             94      0.00059     -0.00058      0.27295 *
 * Al             95      0.00497     -0.01716      0.86040 *
 * Al             96      0.00715      0.00146      1.96179 *
 * Al             97      0.00062     -0.00060     -0.04560 *
 * Al             98     -0.00989      0.00687     -0.85926 *
 * Al             99      0.00548     -0.00161     -1.96165 *
 * Al            100      0.00071     -0.00032     -0.25309 *
 * Al            101      0.00019     -0.00067     -0.07884 *
 * Al            102      0.00068     -0.00041      0.08083 *
 * Al            103      0.00351      0.00169     -7.33454 *
 * Al            104      0.00299      0.00724      7.33303 *
 * Al            105      0.00047     -0.00045      0.05117 *
 * Al            106      0.00048     -0.00055      0.27311 *
 * Al            107     -0.00084     -0.00311      0.85806 *
 * Al            108      0.00285      0.00021      1.96467 *
 *                                                          *
 ************************************************************

Writing analysis data to al3x3.castep_bin

Writing model to al3x3.check
 
 A BibTeX formatted list of references used in this run has been written to 
 al3x3.bib
 
Initialisation time =      3.24 s
Calculation time    =    513.62 s
Finalisation time   =      4.83 s
Total time          =    521.68 s
Peak Memory Use     = 1485136 kB
  
Overall parallel efficiency rating: Good (75%)                                  
  
Data was distributed by:-
G-vector (64-way); efficiency rating: Good (76%)                                
k-point (2-way); efficiency rating: Excellent (99%)                             
  
Parallel notes:
1) Calculation only took 516.9 s, so efficiency estimates may be inaccurate.    
