 vasp.6.3.0 20Jan22 (build Apr  1 2022 11:45:46) complex                         
 executed on        HPECrayEX_GCC date 2022.04.22  17:17:53
 running  512 mpi-ranks, with    1 threads/rank
 distrk:  each k-point on  256 cores,    2 groups
 distr:  one band on NCORE=   2 cores,  128 groups


--------------------------------------------------------------------------------------------------------


 INCAR:
   AEXX = 0.25
   ENCUT = 450
   ICORELEVEL = 0
   NSW = 0
   LSORBIT = True
   EDIFF = 1e-06
   EDIFFG = -0.01
   ALGO = All
   ADDGRID = True
   HFSCREEN = 0.2
   IBRION = -1
   ICHARG = 1
   ISIF = 2
   ISYM = 0
   ISMEAR = 0
   LASPH = True
   LHFCALC = True
   LORBIT = 11
   LREAL = False
   LVHAR = True
   LWAVE = True
   NEDOS = 2000
   NELM = 6
   PREC = Accurate
   PRECFOCK = Fast
   SIGMA = 0.05
   NELECT = 588
   NCORE = 2
   KPAR = 2

 POTCAR:    PAW_PBE Cd 06Sep2000                  
 POTCAR:    PAW_PBE Te 08Apr2002                  
 -----------------------------------------------------------------------------
|                                                                             |
|           W    W    AA    RRRRR   N    N  II  N    N   GGGG   !!!           |
|           W    W   A  A   R    R  NN   N  II  NN   N  G    G  !!!           |
|           W    W  A    A  R    R  N N  N  II  N N  N  G       !!!           |
|           W WW W  AAAAAA  RRRRR   N  N N  II  N  N N  G  GGG   !            |
|           WW  WW  A    A  R   R   N   NN  II  N   NN  G    G                |
|           W    W  A    A  R    R  N    N  II  N    N   GGGG   !!!           |
|                                                                             |
|     You use a magnetic or noncollinear calculation, but did not specify     |
|     the initial magnetic moment with the MAGMOM tag. Note that a            |
|     default of 1 will be used for all atoms. This ferromagnetic setup       |
|     may break the symmetry of the crystal, in particular it may rule        |
|     out finding an antiferromagnetic solution. Thence, we recommend         |
|     setting the initial magnetic moment manually or verifying carefully     |
|     that this magnetic setup is desired.                                    |
|                                                                             |
 -----------------------------------------------------------------------------

 POTCAR:    PAW_PBE Cd 06Sep2000                  
   VRHFIN =Cd : s2 d10                                                                              
   LEXCH  = PE                                                                                      
   EATOM  =  1293.1815 eV,   95.0462 Ry                                                             
                                                                                                    
   TITEL  = PAW_PBE Cd 06Sep2000                                                                    
   LULTRA =        F    use ultrasoft PP ?                                                          
   IUNSCR =        1    unscreen: 0-lin 1-nonlin 2-no                                               
   RPACOR =    2.000    partial core radius                                                         
   POMASS =  112.411; ZVAL   =   12.000    mass and valenz                                          
   RCORE  =    2.300    outmost cutoff radius                                                       
   RWIGS  =    2.980; RWIGS  =    1.577    wigner-seitz radius (au A)                               
   ENMAX  =  274.336; ENMIN  =  205.752 eV                                                          
   RCLOC  =    2.054    cutoff for local pot                                                        
   LCOR   =        T    correct aug charges                                                         
   LPAW   =        T    paw PP                                                                      
   EAUG   =  456.106                                                                                
   DEXC   =    0.000                                                                                
   RMAX   =    2.358    core radius for proj-oper                                                   
   RAUG   =    1.300    factor for augmentation sphere                                              
   RDEP   =    2.450    radius for radial grids                                                     
   RDEPT  =    1.955    core radius for aug-charge                                                  
                                                                                                    
   Atomic configuration                                                                             
   12 entries                                                                                       
     n  l   j            E        occ.                                                              
     1  0  0.50    -26519.7817   2.0000                                                             
     2  0  0.50     -3936.9612   2.0000                                                             
     2  1  1.50     -3532.2230   6.0000                                                             
     3  0  0.50      -733.7908   2.0000                                                             
     3  1  1.50      -601.0792   6.0000                                                             
     3  2  2.50      -393.5307  10.0000                                                             
     4  0  0.50      -105.8977   2.0000                                                             
     4  1  1.50       -66.9488   6.0000                                                             
     4  2  2.50       -11.7331  10.0000                                                             
     5  0  0.50        -5.6592   2.0000                                                             
     5  1  0.50        -1.3606   0.0000                                                             
     4  3  2.50        -1.3606   0.0000                                                             
   Description                                                                                      
     l       E           TYP  RCUT    TYP  RCUT                                                     
     2    -11.7331479     23  2.300                                                                 
     2    -13.0937305     23  2.300                                                                 
     0     -5.6591502     23  2.300                                                                 
     0     -1.5561433     23  2.300                                                                 
     1     -2.7211652     23  2.300                                                                 
     1      8.3548275     23  2.300                                                                 
  local pseudopotential read in
  partial core-charges read in
  partial kinetic energy density read in
  atomic valenz-charges read in
  non local Contribution for L=           2  read in
    real space projection operators read in
  non local Contribution for L=           2  read in
    real space projection operators read in
  non local Contribution for L=           0  read in
    real space projection operators read in
  non local Contribution for L=           0  read in
    real space projection operators read in
  non local Contribution for L=           1  read in
    real space projection operators read in
  non local Contribution for L=           1  read in
    real space projection operators read in
    PAW grid and wavefunctions read in

   number of l-projection  operators is LMAX  =           6
   number of lm-projection operators is LMMAX =          18

 POTCAR:    PAW_PBE Te 08Apr2002                  
   VRHFIN =Te: s2p4                                                                                 
   LEXCH  = PE                                                                                      
   EATOM  =   223.2721 eV,   16.4100 Ry                                                             
                                                                                                    
   TITEL  = PAW_PBE Te 08Apr2002                                                                    
   LULTRA =        F    use ultrasoft PP ?                                                          
   IUNSCR =        1    unscreen: 0-lin 1-nonlin 2-no                                               
   RPACOR =    2.200    partial core radius                                                         
   POMASS =  127.600; ZVAL   =    6.000    mass and valenz                                          
   RCORE  =    2.300    outmost cutoff radius                                                       
   RWIGS  =    2.900; RWIGS  =    1.535    wigner-seitz radius (au A)                               
   ENMAX  =  174.982; ENMIN  =  131.236 eV                                                          
   ICORE  =        3    local potential                                                             
   LCOR   =        T    correct aug charges                                                         
   LPAW   =        T    paw PP                                                                      
   EAUG   =  368.792                                                                                
   DEXC   =    0.000                                                                                
   RMAX   =    2.345    core radius for proj-oper                                                   
   RAUG   =    1.300    factor for augmentation sphere                                              
   RDEP   =    2.397    radius for radial grids                                                     
   RDEPT  =    2.174    core radius for aug-charge                                                  
                                                                                                    
   Atomic configuration                                                                             
   13 entries                                                                                       
     n  l   j            E        occ.                                                              
     1  0  0.50    -31621.2075   2.0000                                                             
     2  0  0.50     -4848.7941   2.0000                                                             
     2  1  1.50     -4352.1960   6.0000                                                             
     3  0  0.50      -964.9612   2.0000                                                             
     3  1  1.50      -803.6179   6.0000                                                             
     3  2  2.50      -559.8710  10.0000                                                             
     4  0  0.50      -164.3522   2.0000                                                             
     4  1  1.50      -114.3756   6.0000                                                             
     4  2  2.50       -41.6483  10.0000                                                             
     5  0  0.50       -15.1072   2.0000                                                             
     5  1  0.50        -5.9526   4.0000                                                             
     5  2  1.50        -5.4423   0.0000                                                             
     4  3  2.50        -5.4423   0.0000                                                             
   Description                                                                                      
     l       E           TYP  RCUT    TYP  RCUT                                                     
     0    -15.1072389     23  2.300                                                                 
     0    -16.4678215     23  2.300                                                                 
     1     -5.9526306     23  2.300                                                                 
     1     -2.4873968     23  2.300                                                                 
     2     -5.4423304     23  2.300                                                                 
     3     -1.3605826     23  2.300                                                                 
  local pseudopotential read in
  partial core-charges read in
  partial kinetic energy density read in
  atomic valenz-charges read in
  non local Contribution for L=           0  read in
    real space projection operators read in
  non local Contribution for L=           0  read in
    real space projection operators read in
  non local Contribution for L=           1  read in
    real space projection operators read in
  non local Contribution for L=           1  read in
    real space projection operators read in
  non local Contribution for L=           2  read in
    real space projection operators read in
    PAW grid and wavefunctions read in

   number of l-projection  operators is LMAX  =           5
   number of lm-projection operators is LMMAX =          13

 -----------------------------------------------------------------------------
|                                                                             |
|               ----> ADVICE to this user running VASP <----                  |
|                                                                             |
|     You have a (more or less) 'large supercell' and for larger cells it     |
|     might be more efficient to use real-space projection operators.         |
|     Therefore, try LREAL= Auto in the INCAR file.                           |
|     Mind: For very accurate calculation, you might also keep the            |
|     reciprocal projection scheme (i.e. LREAL=.FALSE.).                      |
|                                                                             |
 -----------------------------------------------------------------------------

  PAW_PBE Cd 06Sep2000                  :
 energy of atom  1       EATOM=-1293.1815
 kinetic energy error for atom=    0.0084 (will be added to EATOM!!)
  PAW_PBE Te 08Apr2002                  :
 energy of atom  2       EATOM= -223.2721
 kinetic energy error for atom=    0.0008 (will be added to EATOM!!)


 POSCAR: Cd33 Te32
  positions in direct lattice
  No initial velocities read in
 exchange correlation table for  LEXCH =        8
   RHO(1)=    0.500       N(1)  =     2000
   RHO(2)=  100.500       N(2)  =     4000



--------------------------------------------------------------------------------------------------------


 ion  position               nearest neighbor table
   1  0.004  0.996  0.004-  44 2.79  35 2.93  54 2.93  65 2.93  33 2.94
   2  0.001  0.999  0.497-  55 2.82  34 2.82  64 2.82  45 2.84
   3  0.001  0.503  0.001-  63 2.82  56 2.82  37 2.82  42 2.84
   4  1.000  0.501  0.499-  57 2.82  62 2.82  36 2.82  43 2.84
   5  0.497  0.999  0.001-  39 2.82  50 2.82  61 2.82  48 2.84
   6  0.499  0.000  0.499-  38 2.82  51 2.82  60 2.82  49 2.84
   7  0.499  0.501  1.000-  41 2.82  59 2.82  52 2.82  46 2.84
   8  0.501  0.499  0.501-  47 2.82  40 2.83  53 2.83  58 2.83
   9  0.001  0.251  0.253-  54 2.82  34 2.82  62 2.82  42 2.84
  10  0.004  0.254  0.746-  43 2.79  35 2.93  55 2.93  63 2.93  33 2.94
  11  1.000  0.749  0.251-  56 2.82  64 2.82  36 2.82  44 2.84
  12  0.001  0.747  0.749-  65 2.82  57 2.82  37 2.82  45 2.84
  13  0.499  0.250  0.251-  38 2.82  50 2.82  58 2.82  46 2.84
  14  0.497  0.251  0.749-  39 2.82  51 2.82  59 2.82  47 2.84
  15  0.501  0.751  0.249-  48 2.82  40 2.83  52 2.83  60 2.83
  16  0.499  0.749  0.750-  41 2.82  61 2.82  53 2.82  49 2.84
  17  0.251  0.000  0.251-  34 2.82  50 2.82  60 2.82  44 2.84
  18  0.253  0.999  0.749-  35 2.82  51 2.82  61 2.82  45 2.84
  19  0.249  0.499  0.249-  42 2.82  36 2.83  52 2.83  58 2.83
  20  0.251  0.501  0.750-  37 2.82  59 2.82  53 2.82  43 2.84
  21  0.749  0.999  0.253-  54 2.82  38 2.82  64 2.82  48 2.84
  22  0.746  0.996  0.746-  49 2.79  39 2.93  55 2.93  65 2.93  33 2.94
  23  0.750  0.501  0.251-  56 2.82  62 2.82  40 2.82  46 2.84
  24  0.749  0.503  0.749-  63 2.82  57 2.82  41 2.82  47 2.84
  25  0.253  0.251  0.001-  35 2.82  50 2.82  59 2.82  42 2.84
  26  0.251  0.250  0.499-  34 2.82  51 2.82  58 2.82  43 2.84
  27  0.251  0.749  1.000-  37 2.82  61 2.82  52 2.82  44 2.84
  28  0.249  0.751  0.501-  45 2.82  36 2.83  53 2.83  60 2.83
  29  0.746  0.254  0.004-  46 2.79  39 2.93  54 2.93  63 2.93  33 2.94
  30  0.749  0.251  0.497-  55 2.82  38 2.82  62 2.82  47 2.84
  31  0.749  0.747  0.001-  65 2.82  56 2.82  41 2.82  48 2.84
  32  0.750  0.749  0.499-  57 2.82  64 2.82  40 2.82  49 2.84
  33  0.875  0.125  0.875-   1 2.94  10 2.94  22 2.94  29 2.94  35 3.37  39 3.37  54 3.37  55 3.37
                            63 3.37  65 3.37
  34  0.127  0.125  0.375-  17 2.82  26 2.82   2 2.82   9 2.82
  35  0.133  0.125  0.875-  18 2.82  25 2.82  10 2.93   1 2.93  33 3.37
  36  0.126  0.625  0.375-   4 2.82  11 2.82  19 2.83  28 2.83
  37  0.127  0.625  0.875-  20 2.82  27 2.82   3 2.82  12 2.82
  38  0.623  0.125  0.375-  13 2.82   6 2.82  21 2.82  30 2.82
  39  0.617  0.125  0.875-  14 2.82   5 2.82  22 2.93  29 2.93  33 3.37
  40  0.624  0.625  0.375-  23 2.82  32 2.82   8 2.83  15 2.83
  41  0.623  0.625  0.875-   7 2.82  16 2.82  31 2.82  24 2.82
  42  0.125  0.375  0.125-  19 2.82   9 2.84  25 2.84   3 2.84
  43  0.127  0.377  0.623-  10 2.79   4 2.84  26 2.84  20 2.84
  44  0.127  0.873  0.127-   1 2.79  11 2.84  17 2.84  27 2.84
  45  0.125  0.875  0.625-  28 2.82  18 2.84   2 2.84  12 2.84
  46  0.623  0.377  0.127-  29 2.79  13 2.84  23 2.84   7 2.84
  47  0.625  0.375  0.625-   8 2.82  14 2.84  24 2.84  30 2.84
  48  0.625  0.875  0.125-  15 2.82  21 2.84   5 2.84  31 2.84
  49  0.623  0.873  0.623-  22 2.79  32 2.84   6 2.84  16 2.84
  50  0.375  0.125  0.127-  17 2.82  13 2.82   5 2.82  25 2.82
  51  0.375  0.125  0.623-   6 2.82  26 2.82  18 2.82  14 2.82
  52  0.375  0.625  0.126-   7 2.82  27 2.82  19 2.83  15 2.83
  53  0.375  0.625  0.624-  16 2.82  20 2.82   8 2.83  28 2.83
  54  0.875  0.125  0.133-   9 2.82  21 2.82   1 2.93  29 2.93  33 3.37
  55  0.875  0.125  0.617-  30 2.82   2 2.82  22 2.93  10 2.93  33 3.37
  56  0.875  0.625  0.127-  11 2.82  23 2.82   3 2.82  31 2.82
  57  0.875  0.625  0.623-   4 2.82  32 2.82  12 2.82  24 2.82
  58  0.375  0.376  0.375-  26 2.82  13 2.82  19 2.83   8 2.83
  59  0.375  0.377  0.875-   7 2.82  20 2.82  14 2.82  25 2.82
  60  0.375  0.874  0.375-   6 2.82  17 2.82  15 2.83  28 2.83
  61  0.375  0.873  0.875-  16 2.82  27 2.82   5 2.82  18 2.82
  62  0.875  0.377  0.375-   4 2.82  23 2.82   9 2.82  30 2.82
  63  0.875  0.383  0.875-  24 2.82   3 2.82  10 2.93  29 2.93  33 3.37
  64  0.875  0.873  0.375-  11 2.82  32 2.82   2 2.82  21 2.82
  65  0.875  0.867  0.875-  12 2.82  31 2.82   1 2.93  22 2.93  33 3.37


IMPORTANT INFORMATION: All symmetrisations will be switched off!
NOSYMM: (Re-)initialisation of all symmetry stuff for point group C_1.


----------------------------------------------------------------------------------------

                                     Primitive cell                                     

  volume of cell :    2241.2856

  direct lattice vectors                    reciprocal lattice vectors
    13.086768000  0.000000000  0.000000000     0.076413061  0.000000000  0.000000000
     0.000000000 13.086768000  0.000000000     0.000000000  0.076413061  0.000000000
     0.000000000  0.000000000 13.086768000     0.000000000  0.000000000  0.076413061

  length of vectors
    13.086768000 13.086768000 13.086768000     0.076413061  0.076413061  0.076413061

  position of ions in fractional coordinates (direct lattice)
     0.004485000  0.995515000  0.004485000
     0.001247000  0.998753000  0.496959000
     0.001247000  0.503041000  0.001247000
     0.999625000  0.501218000  0.498782000
     0.496959000  0.998753000  0.001247000
     0.498781000  0.000375000  0.498781000
     0.498781000  0.501219000  0.999625000
     0.500528000  0.499472000  0.500528000
     0.001247000  0.251247000  0.253040000
     0.004486000  0.254485000  0.745515000
     0.999625000  0.748782000  0.251218000
     0.001247000  0.746959000  0.748753000
     0.498782000  0.249625000  0.251219000
     0.496960000  0.251247000  0.748753000
     0.500528000  0.750528000  0.249472000
     0.498781000  0.748781000  0.750375000
     0.251219000  0.000375000  0.251219000
     0.253040000  0.998753000  0.748753000
     0.249472000  0.499472000  0.249472000
     0.251219000  0.501219000  0.750375000
     0.748753000  0.998753000  0.253040000
     0.745514000  0.995515000  0.745515000
     0.750375000  0.501219000  0.251219000
     0.748753000  0.503040000  0.748753000
     0.253040000  0.251247000  0.001247000
     0.251219000  0.249625000  0.498781000
     0.251219000  0.748781000  0.999625000
     0.249472000  0.750528000  0.500528000
     0.745514000  0.254485000  0.004485000
     0.748753000  0.251247000  0.496960000
     0.748753000  0.746959000  0.001247000
     0.750375000  0.748782000  0.498782000
     0.875000000  0.125000000  0.875000000
     0.126656000  0.125000000  0.375000000
     0.132779000  0.125000000  0.875000000
     0.125892000  0.625000000  0.375000000
     0.126656000  0.625000000  0.875000000
     0.623344000  0.125000000  0.375000000
     0.617221000  0.125000000  0.875000000
     0.624108000  0.625000000  0.375000000
     0.623344000  0.625000000  0.875000000
     0.124848000  0.374848000  0.124848000
     0.127488000  0.377488000  0.622512000
     0.127488000  0.872512000  0.127488000
     0.124848000  0.875152000  0.625152000
     0.622512000  0.377488000  0.127488000
     0.625152000  0.374848000  0.625152000
     0.625152000  0.875152000  0.124848000
     0.622512000  0.872512000  0.622512000
     0.375000000  0.125000000  0.126656000
     0.375000000  0.125000000  0.623344000
     0.375000000  0.625000000  0.125892000
     0.375000000  0.625000000  0.624108000
     0.875000000  0.125000000  0.132779000
     0.875000000  0.125000000  0.617221000
     0.875000000  0.625000000  0.126656000
     0.875000000  0.625000000  0.623344000
     0.375000000  0.375892000  0.375000000
     0.375000000  0.376656000  0.875000000
     0.375000000  0.874108000  0.375000000
     0.375000000  0.873344000  0.875000000
     0.875000000  0.376656000  0.375000000
     0.875000000  0.382779000  0.875000000
     0.875000000  0.873344000  0.375000000
     0.875000000  0.867221000  0.875000000

  ion indices of the primitive-cell ions
   primitive index   ion index
                 1           1
                 2           2
                 3           3
                 4           4
                 5           5
                 6           6
                 7           7
                 8           8
                 9           9
                10          10
                11          11
                12          12
                13          13
                14          14
                15          15
                16          16
                17          17
                18          18
                19          19
                20          20
                21          21
                22          22
                23          23
                24          24
                25          25
                26          26
                27          27
                28          28
                29          29
                30          30
                31          31
                32          32
                33          33
                34          34
                35          35
                36          36
                37          37
                38          38
                39          39
                40          40
                41          41
                42          42
                43          43
                44          44
                45          45
                46          46
                47          47
                48          48
                49          49
                50          50
                51          51
                52          52
                53          53
                54          54
                55          55
                56          56
                57          57
                58          58
                59          59
                60          60
                61          61
                62          62
                63          63
                64          64
                65          65

----------------------------------------------------------------------------------------



 KPOINTS: Automatically generated mesh            

Read explicit list of k-points.

 Found      8 k-points:

 Following reciprocal coordinates:
            Coordinates               Weight
  0.000000  0.000000  0.000000      0.125000
  0.500000  0.000000  0.000000      0.125000
  0.000000  0.500000  0.000000      0.125000
  0.500000  0.500000  0.000000      0.125000
  0.000000  0.000000  0.500000      0.125000
  0.500000  0.000000  0.500000      0.125000
  0.000000  0.500000  0.500000      0.125000
  0.500000  0.500000  0.500000      0.125000

 Following cartesian coordinates:
            Coordinates               Weight
  0.000000  0.000000  0.000000      0.125000
  0.038207  0.000000  0.000000      0.125000
  0.000000  0.038207  0.000000      0.125000
  0.038207  0.038207  0.000000      0.125000
  0.000000  0.000000  0.038207      0.125000
  0.038207  0.000000  0.038207      0.125000
  0.000000  0.038207  0.038207      0.125000
  0.038207  0.038207  0.038207      0.125000

 
 Subroutine IBZKPT_HF returns following result:
 ==============================================
 
 Found      8 k-points in 1st BZ
 the following      8 k-points will be used (e.g. in the exchange kernel)
 Following reciprocal coordinates:   # in IRBZ
  0.000000  0.000000  0.000000    0.12500000   1 t-inv F
  0.500000  0.000000  0.000000    0.12500000   2 t-inv F
  0.000000  0.500000  0.000000    0.12500000   3 t-inv F
  0.500000  0.500000  0.000000    0.12500000   4 t-inv F
  0.000000  0.000000  0.500000    0.12500000   5 t-inv F
  0.500000  0.000000  0.500000    0.12500000   6 t-inv F
  0.000000  0.500000  0.500000    0.12500000   7 t-inv F
  0.500000  0.500000  0.500000    0.12500000   8 t-inv F


--------------------------------------------------------------------------------------------------------




 Dimension of arrays:
   k-points           NKPTS =      8   k-points in BZ     NKDIM =      8   number of bands    NBANDS=    896
   number of dos      NEDOS =   2000   number of ions     NIONS =     65
   non local maximal  LDIM  =      6   non local SUM 2l+1 LMDIM =     18
   total plane-waves  NPLWV = 884736
   max r-space proj   IRMAX =      1   max aug-charges    IRDMAX= 183854
   dimension x,y,z NGX =    96 NGY =   96 NGZ =   96
   dimension x,y,z NGXF=   192 NGYF=  192 NGZF=  192
   support grid    NGXF=   384 NGYF=  384 NGZF=  384
   ions per type =              33  32
   NGX,Y,Z   is equivalent  to a cutoff of  12.20, 12.20, 12.20 a.u.
   NGXF,Y,Z  is equivalent  to a cutoff of  24.39, 24.39, 24.39 a.u.

 SYSTEM =  unknown system                          
 POSCAR =  Cd33 Te32                               

 Startparameter for this run:
   NWRITE =      2    write-flag & timer
   PREC   = accura    normal or accurate (medium, high low for compatibility)
   ISTART =      0    job   : 0-new  1-cont  2-samecut
   ICHARG =      1    charge: 1-file 2-atom 10-const
   ISPIN  =      1    spin polarized calculation?
   LNONCOLLINEAR =      T non collinear calculations
   LSORBIT =      T    spin-orbit coupling
   INIWAV =      1    electr: 0-lowe 1-rand  2-diag
   LASPH  =      T    aspherical Exc in radial PAW
 Electronic Relaxation 1
   ENCUT  =  450.0 eV  33.07 Ry    5.75 a.u.  22.64 22.64 22.64*2*pi/ulx,y,z
   ENINI  =  450.0     initial cutoff
   ENAUG  =  456.1 eV  augmentation charge cutoff
   NELM   =      6;   NELMIN=  2; NELMDL= -5     # of ELM steps 
   EDIFF  = 0.1E-05   stopping-criterion for ELM
   LREAL  =      F    real-space projection
   NLSPLINE    = F    spline interpolate recip. space projectors
   LCOMPAT=      F    compatible to vasp.4.4
   GGA_COMPAT  = T    GGA compatible to vasp.4.4-vasp.4.6
   LMAXPAW     = -100 max onsite density
   LMAXMIX     =    2 max onsite mixed and CHGCAR
   VOSKOWN=      0    Vosko Wilk Nusair interpolation
   ROPT   =    0.00000   0.00000
 Ionic relaxation
   EDIFFG = -.1E-01   stopping-criterion for IOM
   NSW    =      0    number of steps for IOM
   NBLOCK =      1;   KBLOCK =      1    inner block; outer block 
   IBRION =     -1    ionic relax: 0-MD 1-quasi-New 2-CG
   NFREE  =      0    steps in history (QN), initial steepest desc. (CG)
   ISIF   =      2    stress and relaxation
   IWAVPR =     10    prediction:  0-non 1-charg 2-wave 3-comb
   ISYM   =      0    0-nonsym 1-usesym 2-fastsym
   LCORR  =      T    Harris-Foulkes like correction to forces

   POTIM  = 0.5000    time-step for ionic-motion
   TEIN   =    0.0    initial temperature
   TEBEG  =    0.0;   TEEND  =   0.0 temperature during run
   SMASS  =  -3.00    Nose mass-parameter (am)
   estimated Nose-frequenzy (Omega)   =  0.10E-29 period in steps = 0.13E+47 mass=  -0.391E-26a.u.
   SCALEE = 1.0000    scale energy and forces
   NPACO  =    256;   APACO  = 10.0  distance and # of slots for P.C.
   PSTRESS=    0.0 pullay stress

  Mass of Ions in am
   POMASS = 112.41127.60
  Ionic Valenz
   ZVAL   =  12.00  6.00
  Atomic Wigner-Seitz radii
   RWIGS  =  -1.00 -1.00
  virtual crystal weights 
   VCA    =   1.00  1.00
   NELECT =     588.0000    total number of electrons
   NUPDOWN=      -1.0000    fix difference up-down

 DOS related values:
   EMIN   =  10.00;   EMAX   =-10.00  energy-range for DOS
   EFERMI =   0.00
   ISMEAR =     0;   SIGMA  =   0.05  broadening in eV -4-tet -1-fermi 0-gaus

 Electronic relaxation 2 (details)
   IALGO  =     58    algorithm
   LDIAG  =      T    sub-space diagonalisation (order eigenvalues)
   LSUBROT=      F    optimize rotation matrix (better conditioning)
   TURBO    =      0    0=normal 1=particle mesh
   IRESTART =      0    0=no restart 2=restart with 2 vectors
   NREBOOT  =      0    no. of reboots
   NMIN     =      0    reboot dimension
   EREF     =   0.00    reference energy to select bands
   IMIX   =      4    mixing-type and parameters
     AMIX     =   0.40;   BMIX     =  1.00
     AMIX_MAG =   1.60;   BMIX_MAG =  1.00
     AMIN     =   0.10
     WC   =   100.;   INIMIX=   1;  MIXPRE=   1;  MAXMIX= -45

 Intra band minimization:
   WEIMIN = 0.0000     energy-eigenvalue tresh-hold
   EBREAK =  0.28E-09  absolut break condition
   DEPER  =   0.30     relativ break condition  

   TIME   =   0.40     timestep for ELM

  volume/ion in A,a.u.               =      34.48       232.69
  Fermi-wavevector in a.u.,A,eV,Ry     =   1.048017  1.980464 14.943809  1.098339
  Thomas-Fermi vector in A             =   2.182921

 Write flags
   LWAVE        =      T    write WAVECAR
   LDOWNSAMPLE  =      F    k-point downsampling of WAVECAR
   LCHARG       =      T    write CHGCAR
   LVTOT        =      F    write LOCPOT, total local potential
   LVHAR        =      T    write LOCPOT, Hartree potential only
   LELF         =      F    write electronic localiz. function (ELF)
   LORBIT       =     11    0 simple, 1 ext, 2 COOP (PROOUT), +10 PAW based schemes


 Dipole corrections
   LMONO  =      F    monopole corrections only (constant potential shift)
   LDIPOL =      F    correct potential (dipole corrections)
   IDIPOL =      0    1-x, 2-y, 3-z, 4-all directions 
   EPSILON=  1.0000000 bulk dielectric constant

 Exchange correlation treatment:
   GGA     =    --    GGA type
   LEXCH   =     8    internal setting for exchange type
   LIBXC   =     F    Libxc                    
   VOSKOWN =     0    Vosko Wilk Nusair interpolation
   EXXOEP  =     0    0=HF, 1=EXX-LHF (local Hartree Fock) 2=EXX OEP
   LHFCALC =     T    Hartree Fock is set to
   LSYMGRAD=     F    symmetrize gradient (conserves proper symmetry)
   PRECFOCK=fast      Normal, Fast or Accurate (Low or Medium for compatibility)
   LRHFCALC=     F    long range Hartree Fock
   LRSCOR  =     F    long range correlation only (use DFT for short range part)
   LTHOMAS =     F    Thomas Fermi screening in HF
   LMODELHF=     F    short range full HF, long range fraction AEXX
   LFOCKACE=     T    use Adeptively-Compressed-Exchange operator
   ENCUT4O =  -1.0   cutoff for four orbital integrals eV
   LMAXFOCK=     4    L truncation for augmentation on plane wave grid
   LMAXFOCKAE=  -1    L truncation for all-electron charge restoration on plane wave grid
   NMAXFOCKAE=   1    number of basis functions for all-electron charge restoration
   LFOCKAEDFT=     F  apply the AE augmentation even for DFT
   NKREDX  =     1    reduce k-point grid by
   NKREDY  =     1    reduce k-point grid by
   NKREDZ  =     1    reduce k-point grid by
   SHIFTRED=     F    shift reduced grid of Gamma
   HFKIDENT=     F    idential grid for each k-point
   ODDONLY =     F    use only odd q-grid points
   EVENONLY=     F    use only even q-grid points
   HFALPHA =   -1.0000 decay constant for conv. correction
   MCALPHA =    0.0000 extent of test-charge in conv. correction in multipole expansion
   AEXX    =    0.2500 exact exchange contribution
   HFSCREEN=    0.2000 screening length (either q_TF or 0.3 A-1)
   HFSCREENC=   0.2000 screening length for correlation (either q_TF or 0.3 A-1)
   HFRCUT  =    0.0000 spherical cutoff for potential kernel
   ALDAX   =    0.7500 LDA exchange part
   AGGAX   =    0.7500 GGA exchange part
   ALDAC   =    1.0000 LDA correlation
   AGGAC   =    1.0000 GGA correlation
   ENCUTFOCK=  -1.0 apply spherical cutoff to Coloumb kernel
   NBANDSGWLOW=     1    first orbital included in HF term
   NBLOCK_FOCK=    64    blocking factor in FOCK_ACC

 Linear response parameters
   LEPSILON=     F    determine dielectric tensor
   LRPA    =     F    only Hartree local field effects (RPA)
   LNABLA  =     F    use nabla operator in PAW spheres
   LVEL    =     F    velocity operator in full k-point grid
   CSHIFT  =0.1000    complex shift for real part using Kramers Kronig
   OMEGAMAX=  -1.0    maximum frequency
   DEG_THRESHOLD= 0.2000000E-02 threshold for treating states as degnerate
   RTIME   =   -0.100 relaxation time in fs
  (WPLASMAI=    0.000 imaginary part of plasma frequency in eV, 0.658/RTIME)
   DFIELD  = 0.0000000 0.0000000 0.0000000 field for delta impulse in time

  Optional k-point grid parameters
   LKPOINTS_OPT  =     F    use optional k-point grid
   KPOINTS_OPT_MODE=     1    mode for optional k-point grid

 Orbital magnetization related:
   ORBITALMAG=     F  switch on orbital magnetization
   LCHIMAG   =     F  perturbation theory with respect to B field
   DQ        =  0.001000  dq finite difference perturbation B field
   LLRAUG    =     F  two centre corrections for induced B field



--------------------------------------------------------------------------------------------------------


 Static calculation
 charge density and potential will be updated during run
 non collinear spin polarized calculation
 Conjugate gradient for all bands (Freysoldt, et al. PRB 79, 241103 (2009))
 preconditioned conjugated gradient                                        
 perform sub-space diagonalisation
    before iterative eigenvector-optimisation
 modified Broyden-mixing scheme, WC =      100.0
 initial mixing is a Kerker type mixing with AMIX =  0.4000 and BMIX =      1.0000
 Hartree-type preconditioning will be used
 using additional bands          602
 reciprocal scheme for non local part
 use partial core corrections
 no Harris-corrections to forces 
 use gradient corrections 
 use of overlap-Matrix (Vanderbilt PP)
 Gauss-broadening in eV      SIGMA  =   0.05


--------------------------------------------------------------------------------------------------------


  energy-cutoff  :      450.00
  volume of cell :     2241.29
      direct lattice vectors                 reciprocal lattice vectors
    13.086768000  0.000000000  0.000000000     0.076413061  0.000000000  0.000000000
     0.000000000 13.086768000  0.000000000     0.000000000  0.076413061  0.000000000
     0.000000000  0.000000000 13.086768000     0.000000000  0.000000000  0.076413061

  length of vectors
    13.086768000 13.086768000 13.086768000     0.076413061  0.076413061  0.076413061



 k-points in units of 2pi/SCALE and weight: Automatically generated mesh            
   0.00000000  0.00000000  0.00000000       0.125
   0.03820653  0.00000000  0.00000000       0.125
   0.00000000  0.03820653  0.00000000       0.125
   0.03820653  0.03820653  0.00000000       0.125
   0.00000000  0.00000000  0.03820653       0.125
   0.03820653  0.00000000  0.03820653       0.125
   0.00000000  0.03820653  0.03820653       0.125
   0.03820653  0.03820653  0.03820653       0.125

 k-points in reciprocal lattice and weights: Automatically generated mesh            
   0.00000000  0.00000000  0.00000000       0.125
   0.50000000  0.00000000  0.00000000       0.125
   0.00000000  0.50000000  0.00000000       0.125
   0.50000000  0.50000000  0.00000000       0.125
   0.00000000  0.00000000  0.50000000       0.125
   0.50000000  0.00000000  0.50000000       0.125
   0.00000000  0.50000000  0.50000000       0.125
   0.50000000  0.50000000  0.50000000       0.125

 position of ions in fractional coordinates (direct lattice) 
   0.00448500  0.99551500  0.00448500
   0.00124700  0.99875300  0.49695900
   0.00124700  0.50304100  0.00124700
   0.99962500  0.50121800  0.49878200
   0.49695900  0.99875300  0.00124700
   0.49878100  0.00037500  0.49878100
   0.49878100  0.50121900  0.99962500
   0.50052800  0.49947200  0.50052800
   0.00124700  0.25124700  0.25304000
   0.00448600  0.25448500  0.74551500
   0.99962500  0.74878200  0.25121800
   0.00124700  0.74695900  0.74875300
   0.49878200  0.24962500  0.25121900
   0.49696000  0.25124700  0.74875300
   0.50052800  0.75052800  0.24947200
   0.49878100  0.74878100  0.75037500
   0.25121900  0.00037500  0.25121900
   0.25304000  0.99875300  0.74875300
   0.24947200  0.49947200  0.24947200
   0.25121900  0.50121900  0.75037500
   0.74875300  0.99875300  0.25304000
   0.74551400  0.99551500  0.74551500
   0.75037500  0.50121900  0.25121900
   0.74875300  0.50304000  0.74875300
   0.25304000  0.25124700  0.00124700
   0.25121900  0.24962500  0.49878100
   0.25121900  0.74878100  0.99962500
   0.24947200  0.75052800  0.50052800
   0.74551400  0.25448500  0.00448500
   0.74875300  0.25124700  0.49696000
   0.74875300  0.74695900  0.00124700
   0.75037500  0.74878200  0.49878200
   0.87500000  0.12500000  0.87500000
   0.12665600  0.12500000  0.37500000
   0.13277900  0.12500000  0.87500000
   0.12589200  0.62500000  0.37500000
   0.12665600  0.62500000  0.87500000
   0.62334400  0.12500000  0.37500000
   0.61722100  0.12500000  0.87500000
   0.62410800  0.62500000  0.37500000
   0.62334400  0.62500000  0.87500000
   0.12484800  0.37484800  0.12484800
   0.12748800  0.37748800  0.62251200
   0.12748800  0.87251200  0.12748800
   0.12484800  0.87515200  0.62515200
   0.62251200  0.37748800  0.12748800
   0.62515200  0.37484800  0.62515200
   0.62515200  0.87515200  0.12484800
   0.62251200  0.87251200  0.62251200
   0.37500000  0.12500000  0.12665600
   0.37500000  0.12500000  0.62334400
   0.37500000  0.62500000  0.12589200
   0.37500000  0.62500000  0.62410800
   0.87500000  0.12500000  0.13277900
   0.87500000  0.12500000  0.61722100
   0.87500000  0.62500000  0.12665600
   0.87500000  0.62500000  0.62334400
   0.37500000  0.37589200  0.37500000
   0.37500000  0.37665600  0.87500000
   0.37500000  0.87410800  0.37500000
   0.37500000  0.87334400  0.87500000
   0.87500000  0.37665600  0.37500000
   0.87500000  0.38277900  0.87500000
   0.87500000  0.87334400  0.37500000
   0.87500000  0.86722100  0.87500000

 position of ions in cartesian coordinates  (Angst):
   0.05869415 13.02807385  0.05869415
   0.01631920 13.07044880  6.50358714
   0.01631920  6.58318086  0.01631920
  13.08186046  6.55932368  6.52744432
   6.50358714 13.07044880  0.01631920
   6.52743123  0.00490754  6.52743123
   6.52743123  6.55933677 13.08186046
   6.55029381  6.53647419  6.55029381
   0.01631920  3.28801120  3.31147577
   0.05870724  3.33038615  9.75638185
  13.08186046  9.79913632  3.28763168
   0.01631920  9.77527914  9.79875680
   6.52744432  3.26678446  3.28764477
   6.50360023  3.28801120  9.79875680
   6.55029381  9.82198581  3.26478219
   6.52743123  9.79912323  9.81998354
   3.28764477  0.00490754  3.28764477
   3.31147577 13.07044880  9.79875680
   3.26478219  6.53647419  3.26478219
   3.28764477  6.55933677  9.81998354
   9.79875680 13.07044880  3.31147577
   9.75636876 13.02807385  9.75638185
   9.81998354  6.55933677  3.28764477
   9.79875680  6.58316777  9.79875680
   3.31147577  3.28801120  0.01631920
   3.28764477  3.26678446  6.52743123
   3.28764477  9.79912323 13.08186046
   3.26478219  9.82198581  6.55029381
   9.75636876  3.33038615  0.05869415
   9.79875680  3.28801120  6.50360023
   9.79875680  9.77527914  0.01631920
   9.81998354  9.79913632  6.52744432
  11.45092200  1.63584600 11.45092200
   1.65751769  1.63584600  4.90753800
   1.73764797  1.63584600 11.45092200
   1.64751940  8.17923000  4.90753800
   1.65751769  8.17923000 11.45092200
   8.15755831  1.63584600  4.90753800
   8.07742803  1.63584600 11.45092200
   8.16755660  8.17923000  4.90753800
   8.15755831  8.17923000 11.45092200
   1.63385681  4.90554881  1.63385681
   1.66840588  4.94009788  8.14667012
   1.66840588 11.41836212  1.66840588
   1.63385681 11.45291119  8.18121919
   8.14667012  4.94009788  1.66840588
   8.18121919  4.90554881  8.18121919
   8.18121919 11.45291119  1.63385681
   8.14667012 11.41836212  8.14667012
   4.90753800  1.63584600  1.65751769
   4.90753800  1.63584600  8.15755831
   4.90753800  8.17923000  1.64751940
   4.90753800  8.17923000  8.16755660
  11.45092200  1.63584600  1.73764797
  11.45092200  1.63584600  8.07742803
  11.45092200  8.17923000  1.65751769
  11.45092200  8.17923000  8.15755831
   4.90753800  4.91921140  4.90753800
   4.90753800  4.92920969 11.45092200
   4.90753800 11.43924860  4.90753800
   4.90753800 11.42925031 11.45092200
  11.45092200  4.92920969  4.90753800
  11.45092200  5.00933997 11.45092200
  11.45092200 11.42925031  4.90753800
  11.45092200 11.34912003 11.45092200

 Euler angles ALPHA=     0.0000000  BETA=     0.0000000

 transformation matrix from SAXIS to cartesian coordinates
 ---------------------------------------------------------
     1.0000000 m_x    -0.0000000 m_y     0.0000000 m_z
     0.0000000 m_x     1.0000000 m_y     0.0000000 m_z
    -0.0000000 m_x     0.0000000 m_y     1.0000000 m_z

 transformation matrix from cartesian coordinates to SAXIS
 ---------------------------------------------------------
     1.0000000 m_x     0.0000000 m_y    -0.0000000 m_z
    -0.0000000 m_x     1.0000000 m_y     0.0000000 m_z
     0.0000000 m_x     0.0000000 m_y     1.0000000 m_z




--------------------------------------------------------------------------------------------------------


 k-point   1 :   0.0000 0.0000 0.0000  plane waves:   97002
 k-point   2 :   0.5000 0.0000 0.0000  plane waves:   97356
 k-point   3 :   0.0000 0.5000 0.0000  plane waves:   97356
 k-point   4 :   0.5000 0.5000 0.0000  plane waves:   96960
 k-point   5 :   0.0000 0.0000 0.5000  plane waves:   97356
 k-point   6 :   0.5000 0.0000 0.5000  plane waves:   96960
 k-point   7 :   0.0000 0.5000 0.5000  plane waves:   96960
 k-point   8 :   0.5000 0.5000 0.5000  plane waves:   96832

 maximum and minimum number of plane-waves per node :     48688    48416

 maximum number of plane-waves:     97356
 maximum index in each direction: 
   IXMAX=   22   IYMAX=   22   IZMAX=   22
   IXMIN=  -23   IYMIN=  -23   IZMIN=  -23


 parallel 3D FFT for wavefunctions:
    minimum data exchange during FFTs selected (reduces bandwidth)
 parallel 3D FFT for charge:
    minimum data exchange during FFTs selected (reduces bandwidth)


 FFT grid for exact exchange (Hartree Fock) 
  NGX = 48; NGY = 48; NGZ = 48


 Radii for the augmentation spheres in the non-local exchange
 for species   1 augmentation radius   1.444 (default was   1.070)
       energy cutoff for augmentation   1800.0
 for species   2 augmentation radius   1.606 (default was   1.190)
       energy cutoff for augmentation   1800.0

 real space projection operators:
  total allocation   :       9375.20 KBytes
  max/ min on nodes  :       4743.36       4631.84

 Maximum index for augmentation-charges in exchange          430
  SETUP_FOCK is finished

 total amount of memory used by VASP MPI-rank0   349290. kBytes
=======================================================================

   base      :      30000. kBytes
   nonl-proj :      81754. kBytes
   fftplans  :      28335. kBytes
   grid      :      65470. kBytes
   one-center:       2052. kBytes
   HF        :        129. kBytes
   nonlr-proj:       6679. kBytes
   wavefun   :     134871. kBytes

     INWAV:  cpu time      0.0000: real time      0.0000
 Broyden mixing: mesh for mixing (old mesh)
   NGX = 45   NGY = 45   NGZ = 45
  (NGX  =192   NGY  =192   NGZ  =192)
  gives a total of  91125 points

 initial charge density was supplied:
 charge density of overlapping atoms calculated
 number of electron     588.0000000 magnetization      65.0000000     65.0000000     65.0000000
 keeping initial charge density in first step


--------------------------------------------------------------------------------------------------------


 Maximum index for augmentation-charges         3093 (set IRDMAX)


--------------------------------------------------------------------------------------------------------


 First call to EWALD:  gamma=   0.135
 Maximum number of real-space cells 3x 3x 3
 Maximum number of reciprocal cells 3x 3x 3

    FEWALD:  cpu time      0.0054: real time      0.0055


--------------------------------------- Iteration      1(   1)  ---------------------------------------


    POTLOK:  cpu time      0.4098: real time      0.4124
    SETDIJ:  cpu time      1.0737: real time      1.0747
    TRIAL :  cpu time     36.9583: real time     37.0585
    CORREC:  cpu time      0.0020: real time      0.0020
    --------------------------------------------
      LOOP:  cpu time     38.6201: real time     38.7247

 eigenvalue-minimisations  : 14336
 total energy-change (2. order) :-0.6582973E+05  (-0.2730780E+05)
 number of electron     588.0000000 magnetization      65.0000000     65.0000000     65.0000000
 augmentation part      588.0000000 magnetization      65.0000000     65.0000000     65.0000000

 Free energy of the ion-electron system (eV)
  ---------------------------------------------------
  alpha Z        PSCENC =      1642.45118531
  Ewald energy   TEWEN  =    -33940.17512420
  -Hartree energ DENC   =    -17077.89199325
  -exchange      EXHF   =         0.00000000
  -V(xc)+E(xc)   XCENC  =      -705.19542617
  PAW double counting   =     46123.44547363  -111597.00895026
  entropy T*S    EENTRO =        -0.02714551
  eigenvalues    EBANDS =       -24.75585832
  atomic energy  EATOM  =     49749.42546356
  ---------------------------------------------------
  free energy    TOTEN  =    -65829.73237522 eV

  energy without entropy =   -65829.70522970  energy(sigma->0) =   -65829.71880246
  exchange ACFDT corr.  =         0.00000000  see jH, gK, PRB 81, 115126


--------------------------------------------------------------------------------------------------------




--------------------------------------- Iteration      1(   2)  ---------------------------------------


    TRIAL :  cpu time     42.3201: real time     42.3644
    CORREC:  cpu time      0.0014: real time      0.0014
    --------------------------------------------
      LOOP:  cpu time     42.3316: real time     42.3903

 eigenvalue-minimisations  : 16256
 total energy-change (2. order) :-0.3436474E+04  (-0.3341638E+04)
 number of electron     588.0000000 magnetization      65.0000000     65.0000000     65.0000000
 augmentation part      588.0000000 magnetization      65.0000000     65.0000000     65.0000000

 Free energy of the ion-electron system (eV)
  ---------------------------------------------------
  alpha Z        PSCENC =      1642.45118531
  Ewald energy   TEWEN  =    -33940.17512420
  -Hartree energ DENC   =    -17077.89199325
  -exchange      EXHF   =         0.00000000
  -V(xc)+E(xc)   XCENC  =      -705.19542617
  PAW double counting   =     46123.44547363  -111597.00895026
  entropy T*S    EENTRO =        -0.00569006
  eigenvalues    EBANDS =     -3461.25108208
  atomic energy  EATOM  =     49749.42546356
  ---------------------------------------------------
  free energy    TOTEN  =    -69266.20614353 eV

  energy without entropy =   -69266.20045347  energy(sigma->0) =   -69266.20329850
  exchange ACFDT corr.  =         0.00000000  see jH, gK, PRB 81, 115126


--------------------------------------------------------------------------------------------------------




--------------------------------------- Iteration      1(   3)  ---------------------------------------


    TRIAL :  cpu time     46.2215: real time     46.2505
    CORREC:  cpu time      0.0017: real time      0.0017
    --------------------------------------------
      LOOP:  cpu time     46.2322: real time     46.2773

 eigenvalue-minimisations  : 17408
 total energy-change (2. order) :-0.1835922E+03  (-0.1824420E+03)
 number of electron     588.0000000 magnetization      65.0000000     65.0000000     65.0000000
 augmentation part      588.0000000 magnetization      65.0000000     65.0000000     65.0000000

 Free energy of the ion-electron system (eV)
  ---------------------------------------------------
  alpha Z        PSCENC =      1642.45118531
  Ewald energy   TEWEN  =    -33940.17512420
  -Hartree energ DENC   =    -17077.89199325
  -exchange      EXHF   =         0.00000000
  -V(xc)+E(xc)   XCENC  =      -705.19542617
  PAW double counting   =     46123.44547363  -111597.00895026
  entropy T*S    EENTRO =        -0.01479176
  eigenvalues    EBANDS =     -3644.83422452
  atomic energy  EATOM  =     49749.42546356
  ---------------------------------------------------
  free energy    TOTEN  =    -69449.79838766 eV

  energy without entropy =   -69449.78359590  energy(sigma->0) =   -69449.79099178
  exchange ACFDT corr.  =         0.00000000  see jH, gK, PRB 81, 115126


--------------------------------------------------------------------------------------------------------




--------------------------------------- Iteration      1(   4)  ---------------------------------------


    TRIAL :  cpu time     54.3702: real time     54.3999
    CORREC:  cpu time      0.0014: real time      0.0014
    --------------------------------------------
      LOOP:  cpu time     54.3819: real time     54.4264

 eigenvalue-minimisations  : 20096
 total energy-change (2. order) :-0.5198293E+01  (-0.5195295E+01)
 number of electron     588.0000000 magnetization      65.0000000     65.0000000     65.0000000
 augmentation part      588.0000000 magnetization      65.0000000     65.0000000     65.0000000

 Free energy of the ion-electron system (eV)
  ---------------------------------------------------
  alpha Z        PSCENC =      1642.45118531
  Ewald energy   TEWEN  =    -33940.17512420
  -Hartree energ DENC   =    -17077.89199325
  -exchange      EXHF   =         0.00000000
  -V(xc)+E(xc)   XCENC  =      -705.19542617
  PAW double counting   =     46123.44547363  -111597.00895026
  entropy T*S    EENTRO =        -0.01432185
  eigenvalues    EBANDS =     -3650.03298733
  atomic energy  EATOM  =     49749.42546356
  ---------------------------------------------------
  free energy    TOTEN  =    -69454.99668056 eV

  energy without entropy =   -69454.98235871  energy(sigma->0) =   -69454.98951964
  exchange ACFDT corr.  =         0.00000000  see jH, gK, PRB 81, 115126


--------------------------------------------------------------------------------------------------------




--------------------------------------- Iteration      1(   5)  ---------------------------------------


    POTLOK:  cpu time      0.4183: real time      0.4191
    SETDIJ:  cpu time      1.8950: real time      1.8957
    TRIAL :  cpu time   1313.8749: real time   1314.8063
    CORREC:  cpu time      0.0012: real time      0.0012
    CHARGE:  cpu time      4.1750: real time      4.1974
    --------------------------------------------
      LOOP:  cpu time   1320.3774: real time   1321.3450

 eigenvalue-minimisations  : 14336
 total energy-change (2. order) : 0.6927801E+05  (-0.3581625E+02)
 number of electron     588.0000006 magnetization       0.1779119      0.1779062      0.1779084
 augmentation part      151.7836331 magnetization       0.4968498      0.4968246      0.4968911

 Free energy of the ion-electron system (eV)
  ---------------------------------------------------
  alpha Z        PSCENC =      1642.45118531
  Ewald energy   TEWEN  =    -33940.17512420
  -Hartree energ DENC   =    -17077.89199325
  -exchange      EXHF   =      1181.97774785
  -V(xc)+E(xc)   XCENC  =      -617.56595420
  PAW double counting   =     46020.13618675   -43994.38451641
  entropy T*S    EENTRO =        -0.00646458
  eigenvalues    EBANDS =     -3140.95006876
  atomic energy  EATOM  =     49749.42546356
  ---------------------------------------------------
  free energy    TOTEN  =      -176.98353792 eV

  energy without entropy =     -176.97707334  energy(sigma->0) =     -176.98030563
  exchange ACFDT corr.  =        -0.02543091  see jH, gK, PRB 81, 115126


--------------------------------------------------------------------------------------------------------




--------------------------------------- Iteration      1(   6)  ---------------------------------------


    POTLOK:  cpu time      0.3327: real time      0.3329
    SETDIJ:  cpu time      1.8950: real time      1.8957
    TRIAL :  cpu time   1283.7407: real time   1284.7160
    CORREC:  cpu time   1286.2588: real time   1287.5816
    EDDIAG:  cpu time   1284.9929: real time   1285.8992
    CHARGE:  cpu time      4.1539: real time      4.1586
    --------------------------------------------
      LOOP:  cpu time   3861.3848: real time   3864.6190

 eigenvalue-minimisations  :     0
 total energy-change (2. order) :-0.7024641E+01  (-0.9790473E+01)
 number of electron     588.0000006 magnetization       0.1317355      0.1317288      0.1317306
 augmentation part      154.8132245 magnetization       0.2158237      0.2157323      0.2157902

 Free energy of the ion-electron system (eV)
  ---------------------------------------------------
  alpha Z        PSCENC =      1642.45118531
  Ewald energy   TEWEN  =    -33940.17512420
  -Hartree energ DENC   =    -16886.08276591
  -exchange      EXHF   =      1143.99936533
  -V(xc)+E(xc)   XCENC  =      -625.03787039
  PAW double counting   =    114400.58913823  -112322.78848020
  entropy T*S    EENTRO =        -0.00684257
  eigenvalues    EBANDS =     -3351.41864679
  atomic energy  EATOM  =     49749.42546356
  ---------------------------------------------------
  free energy    TOTEN  =      -184.00817898 eV

  energy without entropy =     -184.00133640  energy(sigma->0) =     -184.00475769
  exchange ACFDT corr.  =        -0.01394119  see jH, gK, PRB 81, 115126


--------------------------------------------------------------------------------------------------------


  average scaling for gradient   0.9709


 average (electrostatic) potential at core
  the test charge radii are     1.0698  1.1897
  (the norm of the test charge is              1.0000)
       1 -33.0575       2 -32.8626       3 -32.8623       4 -32.9057       5 -32.8621
       6 -32.9065       7 -32.9059       8 -32.8820       9 -32.8626      10 -33.0578
      11 -32.9064      12 -32.8625      13 -32.9064      14 -32.8623      15 -32.8824
      16 -32.9059      17 -32.9056      18 -32.8621      19 -32.8818      20 -32.9062
      21 -32.8624      22 -33.0573      23 -32.9059      24 -32.8622      25 -32.8623
      26 -32.9061      27 -32.9059      28 -32.8820      29 -33.0573      30 -32.8622
      31 -32.8622      32 -32.9063      33 -32.3711      34 -86.7753      35 -86.7371
      36 -86.7660      37 -86.7754      38 -86.7755      39 -86.7365      40 -86.7664
      41 -86.7760      42 -86.7456      43 -86.8936      44 -86.8938      45 -86.7452
      46 -86.8937      47 -86.7462      48 -86.7460      49 -86.8939      50 -86.7749
      51 -86.7754      52 -86.7657      53 -86.7661      54 -86.7365      55 -86.7369
      56 -86.7760      57 -86.7756      58 -86.7671      59 -86.7747      60 -86.7670
      61 -86.7753      62 -86.7750      63 -86.7373      64 -86.7754      65 -86.7369



 E-fermi :   3.3429     XC(G=0):  -7.0351     alpha+bet : -7.2837

 Fermi energy:         3.3428537452

 k-point     1 :       0.0000    0.0000    0.0000
  band No.  band energies     occupation 
      1     -10.0712      1.00000
      2     -10.0389      1.00000
      3      -9.8984      1.00000
      4      -9.8983      1.00000
      5      -9.8982      1.00000
      6      -9.8602      1.00000
      7      -9.8601      1.00000
      8      -9.8598      1.00000
      9      -9.8526      1.00000
     10      -9.8524      1.00000
     11      -9.8240      1.00000
     12      -9.8155      1.00000
     13      -9.8153      1.00000
     14      -9.8110      1.00000
     15      -9.7873      1.00000
     16      -9.7866      1.00000
     17      -9.7857      1.00000
     18      -9.7848      1.00000
     19      -9.7800      1.00000
     20      -9.7776      1.00000
     21      -9.7736      1.00000
     22      -9.7709      1.00000
     23      -9.7687      1.00000
     24      -9.7645      1.00000
     25      -9.7599      1.00000
     26      -9.7568      1.00000
     27      -9.7538      1.00000
     28      -9.7536      1.00000
     29      -9.7462      1.00000
     30      -9.7435      1.00000
     31      -9.7434      1.00000
     32      -9.7327      1.00000
     33      -9.7299      1.00000
     34      -9.7248      1.00000
     35      -9.7191      1.00000
     36      -9.7186      1.00000
     37      -9.7163      1.00000
     38      -9.7150      1.00000
     39      -9.7129      1.00000
     40      -9.7123      1.00000
     41      -9.7055      1.00000
     42      -9.6973      1.00000
     43      -9.6928      1.00000
     44      -9.6923      1.00000
     45      -9.6901      1.00000
     46      -9.6894      1.00000
     47      -9.6810      1.00000
     48      -9.6810      1.00000
     49      -9.6757      1.00000
     50      -9.6750      1.00000
     51      -9.6724      1.00000
     52      -9.6637      1.00000
     53      -9.6633      1.00000
     54      -9.6572      1.00000
     55      -9.6533      1.00000
     56      -9.6408      1.00000
     57      -9.6407      1.00000
     58      -9.6320      1.00000
     59      -9.6234      1.00000
     60      -9.6229      1.00000
     61      -9.6221      1.00000
     62      -9.6043      1.00000
     63      -9.6022      1.00000
     64      -9.6007      1.00000
     65      -8.5007      1.00000
     66      -8.4979      1.00000
     67      -8.4966      1.00000
     68      -8.4930      1.00000
     69      -8.4815      1.00000
     70      -8.4780      1.00000
     71      -8.4702      1.00000
     72      -8.4639      1.00000
     73      -8.4405      1.00000
     74      -8.4399      1.00000
     75      -8.4390      1.00000
     76      -8.4383      1.00000
     77      -8.3814      1.00000
     78      -8.3807      1.00000
     79      -8.3797      1.00000
     80      -8.3789      1.00000
     81      -8.3611      1.00000
     82      -8.3589      1.00000
     83      -8.3587      1.00000
     84      -8.3565      1.00000
     85      -8.3477      1.00000
     86      -8.3469      1.00000
     87      -8.3458      1.00000
     88      -8.3449      1.00000
     89      -8.3392      1.00000
     90      -8.3383      1.00000
     91      -8.3341      1.00000
     92      -8.3341      1.00000
     93      -8.3326      1.00000
     94      -8.3320      1.00000
     95      -8.3317      1.00000
     96      -8.3313      1.00000
     97      -8.3306      1.00000
     98      -8.3305      1.00000
     99      -8.3299      1.00000
    100      -8.3295      1.00000
    101      -8.3246      1.00000
    102      -8.3242      1.00000
    103      -8.3238      1.00000
    104      -8.3232      1.00000
    105      -8.3205      1.00000
    106      -8.3193      1.00000
    107      -8.3176      1.00000
    108      -8.3174      1.00000
    109      -8.3171      1.00000
    110      -8.3169      1.00000
    111      -8.3156      1.00000
    112      -8.3155      1.00000
    113      -8.3064      1.00000
    114      -8.3044      1.00000
    115      -8.3035      1.00000
    116      -8.3034      1.00000
    117      -8.3030      1.00000
    118      -8.3030      1.00000
    119      -8.2995      1.00000
    120      -8.2976      1.00000
    121      -8.2953      1.00000
    122      -8.2952      1.00000
    123      -8.2940      1.00000
    124      -8.2938      1.00000
    125      -8.2783      1.00000
    126      -8.2782      1.00000
    127      -8.2762      1.00000
    128      -8.2762      1.00000
    129      -8.2655      1.00000
    130      -8.2633      1.00000
    131      -8.2436      1.00000
    132      -8.2433      1.00000
    133      -8.2428      1.00000
    134      -8.2425      1.00000
    135      -8.2357      1.00000
    136      -8.2346      1.00000
    137      -8.2344      1.00000
    138      -8.2338      1.00000
    139      -8.2336      1.00000
    140      -8.2333      1.00000
    141      -8.2193      1.00000
    142      -8.2187      1.00000
    143      -8.2180      1.00000
    144      -8.2179      1.00000
    145      -8.2177      1.00000
    146      -8.2175      1.00000
    147      -8.2151      1.00000
    148      -8.2145      1.00000
    149      -8.2000      1.00000
    150      -8.1998      1.00000
    151      -8.1995      1.00000
    152      -8.1993      1.00000
    153      -8.1990      1.00000
    154      -8.1975      1.00000
    155      -8.1952      1.00000
    156      -8.1951      1.00000
    157      -8.1945      1.00000
    158      -8.1944      1.00000
    159      -8.1898      1.00000
    160      -8.1896      1.00000
    161      -8.0999      1.00000
    162      -8.0985      1.00000
    163      -8.0896      1.00000
    164      -8.0888      1.00000
    165      -8.0873      1.00000
    166      -8.0863      1.00000
    167      -8.0818      1.00000
    168      -8.0787      1.00000
    169      -8.0786      1.00000
    170      -8.0771      1.00000
    171      -8.0764      1.00000
    172      -8.0748      1.00000
    173      -8.0217      1.00000
    174      -8.0202      1.00000
    175      -8.0026      1.00000
    176      -8.0013      1.00000
    177      -7.9960      1.00000
    178      -7.9957      1.00000
    179      -7.9948      1.00000
    180      -7.9945      1.00000
    181      -7.9875      1.00000
    182      -7.9874      1.00000
    183      -7.9864      1.00000
    184      -7.9863      1.00000
    185      -7.9629      1.00000
    186      -7.9616      1.00000
    187      -7.9442      1.00000
    188      -7.9421      1.00000
    189      -7.9417      1.00000
    190      -7.9395      1.00000
    191      -7.8989      1.00000
    192      -7.8989      1.00000
    193      -7.8989      1.00000
    194      -7.8988      1.00000
    195      -7.8824      1.00000
    196      -7.8822      1.00000
    197      -7.8247      1.00000
    198      -7.8217      1.00000
    199      -7.7926      1.00000
    200      -7.7879      1.00000
    201      -7.7549      1.00000
    202      -7.7544      1.00000
    203      -7.7540      1.00000
    204      -7.7533      1.00000
    205      -7.7282      1.00000
    206      -7.7280      1.00000
    207      -7.7269      1.00000
    208      -7.7257      1.00000
    209      -7.6938      1.00000
    210      -7.6937      1.00000
    211      -7.6928      1.00000
    212      -7.6926      1.00000
    213      -7.6845      1.00000
    214      -7.6825      1.00000
    215      -7.6775      1.00000
    216      -7.6773      1.00000
    217      -7.6756      1.00000
    218      -7.6755      1.00000
    219      -7.6657      1.00000
    220      -7.6655      1.00000
    221      -7.6651      1.00000
    222      -7.6647      1.00000
    223      -7.6632      1.00000
    224      -7.6614      1.00000
    225      -7.6538      1.00000
    226      -7.6535      1.00000
    227      -7.6530      1.00000
    228      -7.6528      1.00000
    229      -7.6527      1.00000
    230      -7.6511      1.00000
    231      -7.6352      1.00000
    232      -7.6352      1.00000
    233      -7.6348      1.00000
    234      -7.6347      1.00000
    235      -7.6290      1.00000
    236      -7.6290      1.00000
    237      -7.6262      1.00000
    238      -7.6258      1.00000
    239      -7.6245      1.00000
    240      -7.6240      1.00000
    241      -7.6225      1.00000
    242      -7.6218      1.00000
    243      -7.6202      1.00000
    244      -7.6201      1.00000
    245      -7.6184      1.00000
    246      -7.6180      1.00000
    247      -7.6173      1.00000
    248      -7.6169      1.00000
    249      -7.6114      1.00000
    250      -7.6107      1.00000
    251      -7.6106      1.00000
    252      -7.6105      1.00000
    253      -7.6095      1.00000
    254      -7.6094      1.00000
    255      -7.6050      1.00000
    256      -7.6042      1.00000
    257      -7.6029      1.00000
    258      -7.6028      1.00000
    259      -7.6020      1.00000
    260      -7.6019      1.00000
    261      -7.5990      1.00000
    262      -7.5982      1.00000
    263      -7.5968      1.00000
    264      -7.5961      1.00000
    265      -7.5844      1.00000
    266      -7.5828      1.00000
    267      -7.5789      1.00000
    268      -7.5788      1.00000
    269      -7.5783      1.00000
    270      -7.5781      1.00000
    271      -7.5777      1.00000
    272      -7.5765      1.00000
    273      -7.5725      1.00000
    274      -7.5724      1.00000
    275      -7.5723      1.00000
    276      -7.5713      1.00000
    277      -7.5706      1.00000
    278      -7.5704      1.00000
    279      -7.5557      1.00000
    280      -7.5556      1.00000
    281      -7.5547      1.00000
    282      -7.5547      1.00000
    283      -7.5520      1.00000
    284      -7.5509      1.00000
    285      -7.5474      1.00000
    286      -7.5470      1.00000
    287      -7.5470      1.00000
    288      -7.5468      1.00000
    289      -7.5443      1.00000
    290      -7.5424      1.00000
    291      -7.5400      1.00000
    292      -7.5400      1.00000
    293      -7.5397      1.00000
    294      -7.5396      1.00000
    295      -7.5363      1.00000
    296      -7.5358      1.00000
    297      -7.5343      1.00000
    298      -7.5336      1.00000
    299      -7.5335      1.00000
    300      -7.5322      1.00000
    301      -7.5320      1.00000
    302      -7.5313      1.00000
    303      -7.5278      1.00000
    304      -7.5273      1.00000
    305      -7.5261      1.00000
    306      -7.5256      1.00000
    307      -7.5222      1.00000
    308      -7.5215      1.00000
    309      -7.5204      1.00000
    310      -7.5201      1.00000
    311      -7.5199      1.00000
    312      -7.5182      1.00000
    313      -7.5161      1.00000
    314      -7.5158      1.00000
    315      -7.5158      1.00000
    316      -7.5148      1.00000
    317      -7.5146      1.00000
    318      -7.5140      1.00000
    319      -7.5132      1.00000
    320      -7.5125      1.00000
    321      -7.5116      1.00000
    322      -7.5111      1.00000
    323      -7.4794      1.00000
    324      -7.4769      1.00000
    325      -7.4754      1.00000
    326      -7.4724      1.00000
    327      -7.4595      1.00000
    328      -7.4557      1.00000
    329      -7.4539      1.00000
    330      -7.4531      1.00000
    331      -7.4520      1.00000
    332      -7.4513      1.00000
    333      -7.4499      1.00000
    334      -7.4498      1.00000
    335      -7.4421      1.00000
    336      -7.4393      1.00000
    337      -7.4383      1.00000
    338      -7.4355      1.00000
    339      -7.3348      1.00000
    340      -7.3320      1.00000
    341      -7.3019      1.00000
    342      -7.3003      1.00000
    343      -7.2976      1.00000
    344      -7.2961      1.00000
    345      -7.2816      1.00000
    346      -7.2770      1.00000
    347      -7.2739      1.00000
    348      -7.2734      1.00000
    349      -7.2714      1.00000
    350      -7.2710      1.00000
    351      -7.2175      1.00000
    352      -7.2162      1.00000
    353      -7.2100      1.00000
    354      -7.2088      1.00000
    355      -7.1688      1.00000
    356      -7.1580      1.00000
    357      -7.1570      1.00000
    358      -7.1528      1.00000
    359      -7.1409      1.00000
    360      -7.1392      1.00000
    361      -7.1384      1.00000
    362      -7.1338      1.00000
    363      -7.1324      1.00000
    364      -7.1305      1.00000
    365      -7.1297      1.00000
    366      -7.1292      1.00000
    367      -7.1291      1.00000
    368      -7.1271      1.00000
    369      -7.1252      1.00000
    370      -7.1204      1.00000
    371      -7.0090      1.00000
    372      -7.0050      1.00000
    373      -7.0044      1.00000
    374      -7.0014      1.00000
    375      -6.9917      1.00000
    376      -6.9916      1.00000
    377      -6.9788      1.00000
    378      -6.9733      1.00000
    379      -6.9703      1.00000
    380      -6.9644      1.00000
    381      -6.9623      1.00000
    382      -6.9618      1.00000
    383      -6.9133      1.00000
    384      -6.9130      1.00000
    385      -6.9069      1.00000
    386      -6.9044      1.00000
    387      -6.8983      1.00000
    388      -6.8979      1.00000
    389      -6.8040      1.00000
    390      -6.8008      1.00000
    391      -6.7839      1.00000
    392      -6.7799      1.00000
    393      -6.7704      1.00000
    394      -6.7691      1.00000
    395      -3.2943      1.00000
    396      -3.2840      1.00000
    397      -2.8527      1.00000
    398      -2.8512      1.00000
    399      -2.8497      1.00000
    400      -2.8301      1.00000
    401      -2.8290      1.00000
    402      -2.8281      1.00000
    403      -2.7743      1.00000
    404      -2.7731      1.00000
    405      -2.7714      1.00000
    406      -2.7504      1.00000
    407      -2.7489      1.00000
    408      -2.7475      1.00000
    409      -2.7244      1.00000
    410      -2.7193      1.00000
    411      -2.7124      1.00000
    412      -2.7077      1.00000
    413      -2.7027      1.00000
    414      -2.7019      1.00000
    415      -2.4841      1.00000
    416      -2.4840      1.00000
    417      -2.4821      1.00000
    418      -2.4719      1.00000
    419      -2.4705      1.00000
    420      -2.4688      1.00000
    421      -2.4375      1.00000
    422      -2.4325      1.00000
    423      -2.1893      1.00000
    424      -2.1892      1.00000
    425      -2.1892      1.00000
    426      -2.1869      1.00000
    427      -2.1844      1.00000
    428      -2.1821      1.00000
    429      -2.1735      1.00000
    430      -2.1703      1.00000
    431      -2.1698      1.00000
    432      -2.1666      1.00000
    433      -2.0922      1.00000
    434      -2.0883      1.00000
    435      -2.0018      1.00000
    436      -2.0013      1.00000
    437      -1.9994      1.00000
    438      -1.9988      1.00000
    439      -1.9940      1.00000
    440      -1.9921      1.00000
    441      -1.9907      1.00000
    442      -1.9877      1.00000
    443      -1.9868      1.00000
    444      -1.9837      1.00000
    445      -1.1804      1.00000
    446      -1.1747      1.00000
    447      -0.9892      1.00000
    448      -0.9888      1.00000
    449      -0.9885      1.00000
    450      -0.9883      1.00000
    451      -0.9844      1.00000
    452      -0.9837      1.00000
    453      -0.9722      1.00000
    454      -0.9720      1.00000
    455      -0.9708      1.00000
    456      -0.9707      1.00000
    457      -0.9422      1.00000
    458      -0.9413      1.00000
    459      -0.9163      1.00000
    460      -0.9145      1.00000
    461      -0.9125      1.00000
    462      -0.9107      1.00000
    463      -0.7834      1.00000
    464      -0.7790      1.00000
    465      -0.6364      1.00000
    466      -0.6311      1.00000
    467      -0.5799      1.00000
    468      -0.5794      1.00000
    469      -0.5773      1.00000
    470      -0.5772      1.00000
    471      -0.5377      1.00000
    472      -0.5356      1.00000
    473      -0.5334      1.00000
    474      -0.5313      1.00000
    475      -0.4954      1.00000
    476      -0.4945      1.00000
    477      -0.4938      1.00000
    478      -0.4886      1.00000
    479      -0.4770      1.00000
    480      -0.4738      1.00000
    481      -0.4682      1.00000
    482      -0.4665      1.00000
    483      -0.4022      1.00000
    484      -0.4022      1.00000
    485      -0.3948      1.00000
    486      -0.3947      1.00000
    487      -0.3706      1.00000
    488      -0.3690      1.00000
    489      -0.3676      1.00000
    490      -0.3648      1.00000
    491      -0.3550      1.00000
    492      -0.3532      1.00000
    493      -0.3196      1.00000
    494      -0.3193      1.00000
    495      -0.3171      1.00000
    496      -0.3157      1.00000
    497      -0.3123      1.00000
    498      -0.3075      1.00000
    499      -0.2890      1.00000
    500      -0.2854      1.00000
    501      -0.2754      1.00000
    502      -0.2746      1.00000
    503      -0.2723      1.00000
    504      -0.2714      1.00000
    505      -0.2596      1.00000
    506      -0.2588      1.00000
    507      -0.2565      1.00000
    508      -0.2525      1.00000
    509      -0.2517      1.00000
    510      -0.2497      1.00000
    511       0.0334      1.00000
    512       0.0341      1.00000
    513       0.0380      1.00000
    514       0.0399      1.00000
    515       0.0807      1.00000
    516       0.0842      1.00000
    517       0.4815      1.00000
    518       0.4923      1.00000
    519       0.5193      1.00000
    520       0.5251      1.00000
    521       0.5288      1.00000
    522       0.5391      1.00000
    523       0.5424      1.00000
    524       0.5449      1.00000
    525       0.5547      1.00000
    526       0.5552      1.00000
    527       0.5657      1.00000
    528       0.5658      1.00000
    529       0.7586      1.00000
    530       0.7720      1.00000
    531       0.7791      1.00000
    532       0.7845      1.00000
    533       0.7930      1.00000
    534       0.7967      1.00000
    535       0.7995      1.00000
    536       0.8118      1.00000
    537       0.8781      1.00000
    538       0.8795      1.00000
    539       0.8867      1.00000
    540       0.8897      1.00000
    541       0.8917      1.00000
    542       0.8931      1.00000
    543       0.9018      1.00000
    544       0.9092      1.00000
    545       0.9157      1.00000
    546       0.9160      1.00000
    547       0.9428      1.00000
    548       0.9523      1.00000
    549       1.0020      1.00000
    550       1.0042      1.00000
    551       1.0079      1.00000
    552       1.0182      1.00000
    553       1.0189      1.00000
    554       1.0219      1.00000
    555       1.0228      1.00000
    556       1.0370      1.00000
    557       1.0373      1.00000
    558       1.0401      1.00000
    559       1.0412      1.00000
    560       1.0441      1.00000
    561       1.0444      1.00000
    562       1.0495      1.00000
    563       1.0498      1.00000
    564       1.0562      1.00000
    565       1.0609      1.00000
    566       1.0613      1.00000
    567       1.0627      1.00000
    568       1.0760      1.00000
    569       1.0795      1.00000
    570       1.0813      1.00000
    571       1.0987      1.00000
    572       1.0989      1.00000
    573       1.2780      1.00000
    574       1.2851      1.00000
    575       1.2972      1.00000
    576       1.2981      1.00000
    577       1.3006      1.00000
    578       1.3087      1.00000
    579       1.3178      1.00000
    580       1.3250      1.00000
    581       1.3323      1.00000
    582       1.3423      1.00000
    583       2.1074      1.00000
    584       2.1287      1.00000
    585       2.1493      1.00000
    586       2.1684      1.00000
    587       2.6403      1.00000
    588       2.6889      1.00000
    589       3.5386      0.74868
    590       3.5505      0.00000
    591       4.1376      0.00000
    592       4.1385      0.00000
    593       4.1404      0.00000
    594       4.1625      0.00000
    595       4.1641      0.00000
    596       4.1653      0.00000
    597       4.2555      0.00000
    598       4.2805      0.00000
    599       4.9599      0.00000
    600       4.9604      0.00000
    601       5.0006      0.00000
    602       5.0012      0.00000
    603       5.1184      0.00000
    604       5.1205      0.00000
    605       5.1305      0.00000
    606       5.1339      0.00000
    607       5.1558      0.00000
    608       5.2093      0.00000
    609       5.2700      0.00000
    610       5.2716      0.00000
    611       5.2726      0.00000
    612       5.3335      0.00000
    613       5.3396      0.00000
    614       5.3453      0.00000
    615       5.4070      0.00000
    616       5.4428      0.00000
    617       5.4924      0.00000
    618       5.5235      0.00000
    619       5.5255      0.00000
    620       5.5255      0.00000
    621       5.5301      0.00000
    622       5.5302      0.00000
    623       5.5337      0.00000
    624       5.5392      0.00000
    625       5.5429      0.00000
    626       5.5432      0.00000
    627       5.5457      0.00000
    628       5.5569      0.00000
    629       5.5642      0.00000
    630       5.5655      0.00000
    631       5.5812      0.00000
    632       5.5819      0.00000
    633       5.5901      0.00000
    634       5.5906      0.00000
    635       5.5985      0.00000
    636       5.6020      0.00000
    637       5.6173      0.00000
    638       5.6488      0.00000
    639       5.6553      0.00000
    640       5.6566      0.00000
    641       5.6629      0.00000
    642       5.6650      0.00000
    643       5.6716      0.00000
    644       5.7027      0.00000
    645       5.7056      0.00000
    646       5.7068      0.00000
    647       5.7101      0.00000
    648       5.7123      0.00000
    649       5.7225      0.00000
    650       5.7360      0.00000
    651       5.7388      0.00000
    652       5.7412      0.00000
    653       5.7413      0.00000
    654       5.7435      0.00000
    655       5.7605      0.00000
    656       5.7610      0.00000
    657       6.4358      0.00000
    658       6.5680      0.00000
    659       6.6601      0.00000
[...]
 l=   3
     0.0000000     0.0000000     0.0000000     0.0000000     0.0000000     0.0000000     0.0000000
     0.0000000     0.0000000     0.0000000     0.0000000     0.0000000     0.0000000     0.0000000
     0.0000000     0.0000000     0.0000000     0.0000000     0.0000000     0.0000000     0.0000000
     0.0000000     0.0000000     0.0000000     0.0000000     0.0000000     0.0000000     0.0000000
     0.0000000     0.0000000     0.0000000     0.0000000     0.0000000     0.0000000     0.0000000
     0.0000000     0.0000000     0.0000000     0.0000000     0.0000000     0.0000000     0.0000000
     0.0000000     0.0000000     0.0000000     0.0000000     0.0000000     0.0000000     0.0000000

 Ion:   61  E_soc:     -0.1853452
 l=   1
     0.0000000    -0.0308109    -0.0308651
    -0.0308109     0.0000000    -0.0308080
    -0.0308651    -0.0308080     0.0000000
 l=   2
    -0.0000000    -0.0000289     0.0000000    -0.0000283    -0.0000358
    -0.0000289    -0.0000000    -0.0000252    -0.0000292    -0.0000082
     0.0000000    -0.0000252     0.0000000    -0.0000249     0.0000000
    -0.0000283    -0.0000292    -0.0000249    -0.0000000    -0.0000081
    -0.0000358    -0.0000082     0.0000000    -0.0000081    -0.0000000
 l=   3
     0.0000000     0.0000000     0.0000000     0.0000000     0.0000000     0.0000000     0.0000000
     0.0000000     0.0000000     0.0000000     0.0000000     0.0000000     0.0000000     0.0000000
     0.0000000     0.0000000     0.0000000     0.0000000     0.0000000     0.0000000     0.0000000
     0.0000000     0.0000000     0.0000000     0.0000000     0.0000000     0.0000000     0.0000000
     0.0000000     0.0000000     0.0000000     0.0000000     0.0000000     0.0000000     0.0000000
     0.0000000     0.0000000     0.0000000     0.0000000     0.0000000     0.0000000     0.0000000
     0.0000000     0.0000000     0.0000000     0.0000000     0.0000000     0.0000000     0.0000000

 Ion:   62  E_soc:     -0.1853653
 l=   1
     0.0000000    -0.0308611    -0.0308111
    -0.0308611     0.0000000    -0.0308215
    -0.0308111    -0.0308215     0.0000000
 l=   2
    -0.0000000    -0.0000290     0.0000000    -0.0000293    -0.0000335
    -0.0000290    -0.0000000    -0.0000266    -0.0000283    -0.0000094
     0.0000000    -0.0000266     0.0000000    -0.0000247     0.0000000
    -0.0000293    -0.0000283    -0.0000247    -0.0000000    -0.0000082
    -0.0000335    -0.0000094     0.0000000    -0.0000082    -0.0000000
 l=   3
     0.0000000     0.0000000     0.0000000     0.0000000     0.0000000     0.0000000     0.0000000
     0.0000000     0.0000000     0.0000000     0.0000000     0.0000000     0.0000000     0.0000000
     0.0000000     0.0000000     0.0000000     0.0000000     0.0000000     0.0000000     0.0000000
     0.0000000     0.0000000     0.0000000     0.0000000     0.0000000     0.0000000     0.0000000
     0.0000000     0.0000000     0.0000000     0.0000000     0.0000000     0.0000000     0.0000000
     0.0000000     0.0000000     0.0000000     0.0000000     0.0000000     0.0000000     0.0000000
     0.0000000     0.0000000     0.0000000     0.0000000     0.0000000     0.0000000     0.0000000

 Ion:   63  E_soc:     -0.1879946
 l=   1
     0.0000000    -0.0313204    -0.0313111
    -0.0313204     0.0000000    -0.0312015
    -0.0313111    -0.0312015     0.0000000
 l=   2
    -0.0000000    -0.0000260     0.0000000    -0.0000257    -0.0000289
    -0.0000260    -0.0000000    -0.0000219    -0.0000258    -0.0000070
     0.0000000    -0.0000219     0.0000000    -0.0000218     0.0000000
    -0.0000257    -0.0000258    -0.0000218    -0.0000000    -0.0000071
    -0.0000289    -0.0000070     0.0000000    -0.0000071     0.0000000
 l=   3
     0.0000000     0.0000000     0.0000000     0.0000000     0.0000000     0.0000000     0.0000000
     0.0000000     0.0000000     0.0000000     0.0000000     0.0000000     0.0000000     0.0000000
     0.0000000     0.0000000     0.0000000     0.0000000     0.0000000     0.0000000     0.0000000
     0.0000000     0.0000000     0.0000000     0.0000000     0.0000000     0.0000000     0.0000000
     0.0000000     0.0000000     0.0000000     0.0000000     0.0000000     0.0000000     0.0000000
     0.0000000     0.0000000     0.0000000     0.0000000     0.0000000     0.0000000     0.0000000
     0.0000000     0.0000000     0.0000000     0.0000000     0.0000000     0.0000000     0.0000000

 Ion:   64  E_soc:     -0.1853488
 l=   1
     0.0000000    -0.0308732    -0.0307901
    -0.0308732     0.0000000    -0.0308225
    -0.0307901    -0.0308225     0.0000000
 l=   2
    -0.0000000    -0.0000289     0.0000000    -0.0000292    -0.0000336
    -0.0000289    -0.0000000    -0.0000264    -0.0000284    -0.0000093
     0.0000000    -0.0000264     0.0000000    -0.0000245     0.0000000
    -0.0000292    -0.0000284    -0.0000245    -0.0000000    -0.0000083
    -0.0000336    -0.0000093     0.0000000    -0.0000083    -0.0000000
 l=   3
     0.0000000     0.0000000     0.0000000     0.0000000     0.0000000     0.0000000     0.0000000
     0.0000000     0.0000000     0.0000000     0.0000000     0.0000000     0.0000000     0.0000000
     0.0000000     0.0000000     0.0000000     0.0000000     0.0000000     0.0000000     0.0000000
     0.0000000     0.0000000     0.0000000     0.0000000     0.0000000     0.0000000     0.0000000
     0.0000000     0.0000000     0.0000000     0.0000000     0.0000000     0.0000000     0.0000000
     0.0000000     0.0000000     0.0000000     0.0000000     0.0000000     0.0000000     0.0000000
     0.0000000     0.0000000     0.0000000     0.0000000     0.0000000     0.0000000     0.0000000

 Ion:   65  E_soc:     -0.1879763
 l=   1
     0.0000000    -0.0313195    -0.0313111
    -0.0313195     0.0000000    -0.0311935
    -0.0313111    -0.0311935     0.0000000
 l=   2
    -0.0000000    -0.0000260     0.0000000    -0.0000258    -0.0000289
    -0.0000260    -0.0000000    -0.0000218    -0.0000258    -0.0000070
     0.0000000    -0.0000218     0.0000000    -0.0000214     0.0000000
    -0.0000258    -0.0000258    -0.0000214    -0.0000000    -0.0000072
    -0.0000289    -0.0000070     0.0000000    -0.0000072     0.0000000
 l=   3
     0.0000000     0.0000000     0.0000000     0.0000000     0.0000000     0.0000000     0.0000000
     0.0000000     0.0000000     0.0000000     0.0000000     0.0000000     0.0000000     0.0000000
     0.0000000     0.0000000     0.0000000     0.0000000     0.0000000     0.0000000     0.0000000
     0.0000000     0.0000000     0.0000000     0.0000000     0.0000000     0.0000000     0.0000000
     0.0000000     0.0000000     0.0000000     0.0000000     0.0000000     0.0000000     0.0000000
     0.0000000     0.0000000     0.0000000     0.0000000     0.0000000     0.0000000     0.0000000
     0.0000000     0.0000000     0.0000000     0.0000000     0.0000000     0.0000000     0.0000000



 total charge

# of ion       s       p       d       tot
------------------------------------------
    1        0.403   0.280   9.583  10.266
    2        0.413   0.293   9.582  10.288
    3        0.413   0.293   9.582  10.288
    4        0.412   0.294   9.583  10.288
    5        0.413   0.293   9.582  10.288
    6        0.412   0.294   9.583  10.288
    7        0.412   0.294   9.583  10.288
    8        0.410   0.291   9.583  10.284
    9        0.413   0.293   9.582  10.288
   10        0.403   0.280   9.583  10.266
   11        0.412   0.294   9.583  10.288
   12        0.413   0.293   9.582  10.288
   13        0.412   0.294   9.583  10.288
   14        0.413   0.293   9.582  10.288
   15        0.410   0.291   9.583  10.284
   16        0.412   0.294   9.583  10.288
   17        0.412   0.294   9.583  10.288
   18        0.413   0.293   9.582  10.288
   19        0.410   0.291   9.583  10.284
   20        0.412   0.294   9.583  10.288
   21        0.413   0.293   9.582  10.288
   22        0.403   0.280   9.583  10.266
   23        0.412   0.294   9.583  10.288
   24        0.413   0.293   9.582  10.288
   25        0.413   0.293   9.582  10.288
   26        0.412   0.294   9.583  10.288
   27        0.412   0.294   9.583  10.288
   28        0.410   0.291   9.583  10.284
   29        0.403   0.280   9.583  10.266
   30        0.413   0.293   9.582  10.288
   31        0.413   0.293   9.582  10.288
   32        0.412   0.294   9.583  10.288
   33        0.719   0.152   9.550  10.421
   34        1.285   2.236   0.016   3.537
   35        1.296   2.208   0.016   3.520
   36        1.285   2.234   0.016   3.535
   37        1.285   2.236   0.016   3.537
   38        1.285   2.236   0.016   3.537
   39        1.296   2.208   0.016   3.520
   40        1.285   2.234   0.016   3.535
   41        1.285   2.235   0.016   3.536
   42        1.285   2.232   0.015   3.532
   43        1.285   2.232   0.016   3.532
   44        1.285   2.231   0.016   3.532
   45        1.285   2.232   0.015   3.532
   46        1.285   2.231   0.016   3.532
   47        1.285   2.232   0.015   3.532
   48        1.285   2.232   0.015   3.532
   49        1.285   2.231   0.016   3.532
   50        1.285   2.236   0.016   3.537
   51        1.285   2.236   0.016   3.537
   52        1.285   2.234   0.016   3.535
   53        1.285   2.234   0.016   3.535
   54        1.296   2.208   0.016   3.521
   55        1.296   2.208   0.016   3.520
   56        1.285   2.235   0.016   3.536
   57        1.285   2.236   0.016   3.537
   58        1.285   2.234   0.016   3.534
   59        1.285   2.236   0.016   3.537
   60        1.285   2.234   0.016   3.534
   61        1.285   2.236   0.016   3.536
   62        1.285   2.236   0.016   3.537
   63        1.296   2.208   0.016   3.520
   64        1.285   2.236   0.016   3.537
   65        1.296   2.208   0.016   3.520
--------------------------------------------------
tot         55.050  80.804 316.712 452.566



 magnetization (x)

# of ion       s       p       d       tot
------------------------------------------
    1       -0.005  -0.004   0.003  -0.006
    2       -0.005  -0.003   0.002  -0.006
    3       -0.005  -0.003   0.002  -0.006
    4       -0.005  -0.003   0.002  -0.006
    5       -0.005  -0.003   0.002  -0.006
    6       -0.005  -0.003   0.002  -0.006
    7       -0.005  -0.003   0.002  -0.006
    8       -0.005  -0.003   0.002  -0.006
    9       -0.005  -0.003   0.002  -0.006
   10       -0.005  -0.004   0.003  -0.006
   11       -0.005  -0.003   0.002  -0.006
   12       -0.005  -0.003   0.002  -0.006
   13       -0.005  -0.003   0.002  -0.006
   14       -0.005  -0.003   0.002  -0.006
   15       -0.005  -0.003   0.002  -0.006
   16       -0.005  -0.003   0.002  -0.006
   17       -0.005  -0.003   0.002  -0.006
   18       -0.005  -0.003   0.002  -0.006
   19       -0.005  -0.003   0.002  -0.006
   20       -0.005  -0.003   0.002  -0.006
   21       -0.005  -0.003   0.002  -0.006
   22       -0.005  -0.004   0.003  -0.006
   23       -0.005  -0.003   0.002  -0.006
   24       -0.005  -0.003   0.002  -0.006
   25       -0.005  -0.003   0.002  -0.006
   26       -0.005  -0.003   0.002  -0.006
   27       -0.005  -0.003   0.002  -0.006
   28       -0.005  -0.003   0.002  -0.006
   29       -0.005  -0.004   0.003  -0.006
   30       -0.005  -0.003   0.002  -0.006
   31       -0.005  -0.003   0.002  -0.006
   32       -0.005  -0.003   0.002  -0.006
   33        0.025  -0.003   0.002   0.024
   34        0.007   0.023  -0.000   0.030
   35        0.007   0.026  -0.000   0.034
   36        0.007   0.023  -0.000   0.029
   37        0.007   0.023  -0.000   0.030
   38        0.007   0.023  -0.000   0.030
   39        0.007   0.026  -0.000   0.034
   40        0.007   0.022  -0.000   0.029
   41        0.007   0.023  -0.000   0.030
   42        0.007   0.023  -0.000   0.030
   43        0.008   0.023  -0.000   0.030
   44        0.008   0.023  -0.000   0.030
   45        0.007   0.023  -0.000   0.030
   46        0.008   0.023  -0.000   0.030
   47        0.007   0.023  -0.000   0.030
   48        0.007   0.023  -0.000   0.030
   49        0.008   0.023  -0.000   0.030
   50        0.007   0.023  -0.000   0.030
   51        0.007   0.023  -0.000   0.030
   52        0.007   0.022  -0.000   0.029
   53        0.007   0.022  -0.000   0.029
   54        0.007   0.027  -0.000   0.034
   55        0.007   0.026  -0.000   0.034
   56        0.007   0.023  -0.000   0.030
   57        0.007   0.023  -0.000   0.030
   58        0.007   0.022  -0.000   0.029
   59        0.007   0.023  -0.000   0.030
   60        0.007   0.023  -0.000   0.030
   61        0.007   0.023  -0.000   0.030
   62        0.007   0.023  -0.000   0.030
   63        0.007   0.026  -0.000   0.034
   64        0.007   0.023  -0.000   0.030
   65        0.007   0.026  -0.000   0.034
--------------------------------------------------
tot          0.108   0.643   0.069   0.820



 magnetization (y)

# of ion       s       p       d       tot
------------------------------------------
    1       -0.005  -0.004   0.003  -0.006
    2       -0.005  -0.003   0.002  -0.006
    3       -0.005  -0.003   0.002  -0.006
    4       -0.005  -0.003   0.002  -0.006
    5       -0.005  -0.003   0.002  -0.006
    6       -0.005  -0.003   0.002  -0.006
    7       -0.005  -0.003   0.002  -0.006
    8       -0.005  -0.003   0.002  -0.006
    9       -0.005  -0.003   0.002  -0.006
   10       -0.005  -0.004   0.003  -0.006
   11       -0.005  -0.003   0.002  -0.006
   12       -0.005  -0.003   0.002  -0.006
   13       -0.005  -0.003   0.002  -0.006
   14       -0.005  -0.003   0.002  -0.006
   15       -0.005  -0.003   0.002  -0.006
   16       -0.005  -0.003   0.002  -0.006
   17       -0.005  -0.003   0.002  -0.006
   18       -0.005  -0.003   0.002  -0.006
   19       -0.005  -0.003   0.002  -0.006
   20       -0.005  -0.003   0.002  -0.006
   21       -0.005  -0.003   0.002  -0.006
   22       -0.005  -0.004   0.003  -0.006
   23       -0.005  -0.003   0.002  -0.006
   24       -0.005  -0.003   0.002  -0.006
   25       -0.005  -0.003   0.002  -0.006
   26       -0.005  -0.003   0.002  -0.006
   27       -0.005  -0.003   0.002  -0.006
   28       -0.005  -0.003   0.002  -0.006
   29       -0.005  -0.004   0.003  -0.006
   30       -0.005  -0.003   0.002  -0.006
   31       -0.005  -0.003   0.002  -0.006
   32       -0.005  -0.003   0.002  -0.006
   33        0.025  -0.003   0.002   0.024
   34        0.007   0.023  -0.000   0.030
   35        0.007   0.026  -0.000   0.034
   36        0.007   0.022  -0.000   0.029
   37        0.007   0.023  -0.000   0.030
   38        0.007   0.023  -0.000   0.030
   39        0.007   0.026  -0.000   0.034
   40        0.007   0.023  -0.000   0.030
   41        0.007   0.023  -0.000   0.030
   42        0.007   0.023  -0.000   0.030
   43        0.008   0.023  -0.000   0.030
   44        0.008   0.023  -0.000   0.030
   45        0.007   0.023  -0.000   0.030
   46        0.008   0.023  -0.000   0.030
   47        0.007   0.023  -0.000   0.030
   48        0.007   0.023  -0.000   0.030
   49        0.008   0.023  -0.000   0.030
   50        0.007   0.023  -0.000   0.030
   51        0.007   0.023  -0.000   0.030
   52        0.007   0.022  -0.000   0.029
   53        0.007   0.023  -0.000   0.030
   54        0.007   0.027  -0.000   0.034
   55        0.007   0.026  -0.000   0.034
   56        0.007   0.023  -0.000   0.030
   57        0.007   0.023  -0.000   0.030
   58        0.007   0.022  -0.000   0.029
   59        0.007   0.023  -0.000   0.030
   60        0.007   0.023  -0.000   0.030
   61        0.007   0.023  -0.000   0.030
   62        0.007   0.023  -0.000   0.030
   63        0.007   0.026  -0.000   0.034
   64        0.007   0.023  -0.000   0.030
   65        0.007   0.026  -0.000   0.034
--------------------------------------------------
tot          0.108   0.643   0.069   0.820



 magnetization (z)

# of ion       s       p       d       tot
------------------------------------------
    1       -0.005  -0.004   0.003  -0.006
    2       -0.005  -0.003   0.002  -0.006
    3       -0.005  -0.003   0.002  -0.006
    4       -0.005  -0.003   0.002  -0.006
    5       -0.005  -0.003   0.002  -0.006
    6       -0.005  -0.003   0.002  -0.006
    7       -0.005  -0.003   0.002  -0.006
    8       -0.005  -0.003   0.002  -0.006
    9       -0.005  -0.003   0.002  -0.006
   10       -0.005  -0.004   0.003  -0.006
   11       -0.005  -0.003   0.002  -0.006
   12       -0.005  -0.003   0.002  -0.006
   13       -0.005  -0.003   0.002  -0.006
   14       -0.005  -0.003   0.002  -0.006
   15       -0.005  -0.003   0.002  -0.006
   16       -0.005  -0.003   0.002  -0.005
   17       -0.005  -0.003   0.002  -0.006
   18       -0.005  -0.003   0.002  -0.006
   19       -0.005  -0.003   0.002  -0.006
   20       -0.005  -0.003   0.002  -0.006
   21       -0.005  -0.003   0.002  -0.006
   22       -0.005  -0.004   0.003  -0.006
   23       -0.005  -0.003   0.002  -0.006
   24       -0.005  -0.003   0.002  -0.006
   25       -0.005  -0.003   0.002  -0.006
   26       -0.005  -0.003   0.002  -0.006
   27       -0.005  -0.003   0.002  -0.006
   28       -0.005  -0.003   0.002  -0.006
   29       -0.005  -0.004   0.003  -0.006
   30       -0.005  -0.003   0.002  -0.006
   31       -0.005  -0.003   0.002  -0.006
   32       -0.005  -0.003   0.002  -0.006
   33        0.025  -0.003   0.002   0.024
   34        0.007   0.023  -0.000   0.030
   35        0.007   0.026  -0.000   0.034
   36        0.007   0.023  -0.000   0.030
   37        0.007   0.023  -0.000   0.030
   38        0.007   0.023  -0.000   0.030
   39        0.007   0.026  -0.000   0.034
   40        0.007   0.022  -0.000   0.029
   41        0.007   0.023  -0.000   0.030
   42        0.007   0.023  -0.000   0.030
   43        0.008   0.023  -0.000   0.030
   44        0.008   0.023  -0.000   0.030
   45        0.007   0.023  -0.000   0.030
   46        0.008   0.023  -0.000   0.030
   47        0.007   0.023  -0.000   0.030
   48        0.007   0.023  -0.000   0.030
   49        0.008   0.023  -0.000   0.030
   50        0.007   0.023  -0.000   0.030
   51        0.007   0.023  -0.000   0.030
   52        0.007   0.023  -0.000   0.030
   53        0.007   0.022  -0.000   0.029
   54        0.007   0.026  -0.000   0.034
   55        0.007   0.026  -0.000   0.034
   56        0.007   0.023  -0.000   0.030
   57        0.007   0.023  -0.000   0.030
   58        0.007   0.022  -0.000   0.029
   59        0.007   0.023  -0.000   0.030
   60        0.007   0.023  -0.000   0.030
   61        0.007   0.023  -0.000   0.030
   62        0.007   0.023  -0.000   0.030
   63        0.007   0.026  -0.000   0.034
   64        0.007   0.023  -0.000   0.030
   65        0.007   0.026  -0.000   0.034
--------------------------------------------------
tot          0.108   0.643   0.069   0.820


 total amount of memory used by VASP MPI-rank0   687435. kBytes
=======================================================================

   base      :      30000. kBytes
   nonl-proj :      81754. kBytes
   fftplans  :      28335. kBytes
   grid      :      65470. kBytes
   one-center:       2052. kBytes
   HF        :        129. kBytes
   nonlr-proj:      15571. kBytes
   wavefun   :     134871. kBytes
   fock_wrk  :     329253. kBytes

  
  
 General timing and accounting informations for this job:
 ========================================================
  
                  Total CPU time used (sec):     7270.207
                            User time (sec):     7197.855
                          System time (sec):       72.351
                         Elapsed time (sec):     7277.088
  
                   Maximum memory used (kb):     1382544.
                   Average memory used (kb):          N/A
  
                          Minor page faults:      1025164
                          Major page faults:           20
                 Voluntary context switches:       159637
