 +-------------------------------------------------+
 |                                                 |
 |      CCC   AA    SSS  TTTTT  EEEEE  PPPP        |
 |     C     A  A  S       T    E      P   P       |
 |     C     AAAA   SS     T    EEE    PPPP        |
 |     C     A  A     S    T    E      P           |
 |      CCC  A  A  SSS     T    EEEEE  P           |
 |                                                 |
 +-------------------------------------------------+
 |                                                 |
 | Welcome to Academic Release CASTEP version 21.11|          
 | Ab Initio Total Energy Program                  |
 |                                                 |
 | Authors:                                        |
 | M. Segall, M. Probert, C. Pickard, P. Hasnip,   |
 | S. Clark, K. Refson, J. R. Yates, M. Payne      |
 |                                                 |
 | Contributors:                                   |
 | P. Lindan, P. Haynes, J. White, V. Milman,      |
 | N. Govind, M. Gibson, P. Tulip, V. Cocula,      |
 | B. Montanari, D. Quigley, M. Glover,            |
 | L. Bernasconi, A. Perlov, M. Plummer,           |
 | E. McNellis, J. Meyer, J. Gale, D. Jochym       |
 | J. Aarons, B. Walker, R. Gillen, D. Jones       |
 | T. Green, I. J. Bush, C. J. Armstrong,          |
 | E. J. Higgins, E. L. Brown, M. S. McFly,        |
 | J. Wilkins, B-C. Shih, P. J. P. Byrne,          |
 | R. J. Maurer, J. C. Womack, J. Dziedzic,        |
 | A. Bartok-Partay, L. LeBlanc                    |
 |                                                 |
 | Copyright (c) 2000 - 2021                       |
 |                                                 |
 |     Distributed under license from Cambridge    |
 |     Enterprise for academic use only.           |
 |                                                 |
 | Please cite                                     |
 |                                                 |
 |     "First principles methods using CASTEP"     |
 |                                                 |
 |         Zeitschrift fuer Kristallographie       |
 |           220(5-6) pp. 567-570 (2005)           |
 |                                                 |
 | S. J. Clark, M. D. Segall, C. J. Pickard,       |
 | P. J. Hasnip, M. J. Probert, K. Refson,         |
 | M. C. Payne                                     |
 |                                                 |
 |       in all publications arising from          |
 |              your use of CASTEP                 |
 |                                                 |
 +-------------------------------------------------+
 |                                                 |
 |              http://www.castep.org              |
 |                                                 |
 +-------------------------------------------------+
 
 
 
 Compiled for linux_x86_64_cray-XT on Tue, 01 Mar 2022 09:19:15 +0000
 from code version 7d4405a8a+  HEAD  Sat Nov 27 13:38:33 2021 +0000
 Compiler: Cray Fortran 12.0.3; Optimisation: fast
 MATHLIBS: LibSci (LAPACK version 3.6.1)
 FFT Lib : fftw3 version commercial-fftw-3.3.8-sse2-avx-avx2-avx2_128
 Fundamental constants values: CODATA 2014
 
 Run started: Wed, 02 Mar 2022 11:42:54 +0000
 
 Pseudo atomic calculation performed for O 2s2 2p4
 
 Converged in 13 iterations to a total energy of -430.9847 eV
 
 Pseudo atomic calculation performed for Al 3s2 3p1
 
 Converged in 14 iterations to a total energy of -53.3906 eV
 Calculation parallelised over 128 processes.
 Data is distributed by G-vector(64-way) and k-point(2-way)

 ************************************ Title ************************************
 3x3 sapphire surface benchmark (v1.1)

 ***************************** General Parameters ******************************
  
 output verbosity                               : normal  (1)
 write checkpoint data to                       : al3x3.check
 type of calculation                            : single point energy
 stress calculation                             : off
 density difference calculation                 : off
 electron localisation func (ELF) calculation   : off
 Hirshfeld analysis                             : off
 polarisation (Berry phase) analysis            : off
 molecular orbital projected DOS                : off
 deltaSCF calculation                           : off
 unlimited duration calculation
 timing information                             : on
 memory usage estimate                          : on
 write extra output files                       : on
 write final potential to formatted file        : off
 write final density to formatted file          : off
 write BibTeX reference list                    : on
 write OTFG pseudopotential files               : on
 write electrostatic potential file             : on
 write bands file                               : on
 checkpoint writing                             : both castep_bin and check files
  
 output         length unit                     : A
 output           mass unit                     : amu
 output           time unit                     : ps
 output         charge unit                     : e
 output           spin unit                     : hbar/2
 output         energy unit                     : eV
 output          force unit                     : eV/A
 output       velocity unit                     : A/ps
 output       pressure unit                     : GPa
 output     inv_length unit                     : 1/A
 output      frequency unit                     : cm-1
 output force constant unit                     : eV/A**2
 output         volume unit                     : A**3
 output   IR intensity unit                     : (D/A)**2/amu
 output         dipole unit                     : D
 output         efield unit                     : eV/A/e
 output        entropy unit                     : J/mol/K
 output    efield chi2 unit                     : pm/V
  
 wavefunctions paging                           : none
 random number generator seed                   :          1
 data distribution                              : optimal for this architecture
 optimization strategy                          : maximize speed(+++)

 *********************** Exchange-Correlation Parameters ***********************
  
 using functional                               : Perdew Wang (1991)
 relativistic treatment                         : Koelling-Harmon
 DFT+D: Semi-empirical dispersion correction    : off

 ************************* Pseudopotential Parameters **************************
  
 pseudopotential representation                 : reciprocal space
 <beta|phi> representation                      : reciprocal space
 spin-orbit coupling                            : off

 **************************** Basis Set Parameters *****************************
  
 plane wave basis set cut-off                   :   400.0000   eV
 size of standard grid                          :     1.7500
 size of   fine   gmax                          :    17.9311   1/A
 finite basis set correction                    : none

 **************************** Electronic Parameters ****************************
  
 number of  electrons                           :  1296.    
 net charge of system                           :  0.000    
 treating system as non-spin-polarized
 number of bands                                :        768

 ********************* Electronic Minimization Parameters **********************
  
 Method: Treating system as metallic with density mixing treatment of electrons,
         and number of  SD  steps               :          1
         and number of  CG  steps               :          4
  
 total energy / atom convergence tol.           : 0.1500E-01   eV
 eigen-energy convergence tolerance             : 0.1000E-05   eV
 max force / atom convergence tol.              : ignored
 convergence tolerance window                   :          3   cycles
 max. number of SCF cycles                      :         40
 smearing scheme                                : Gaussian
 smearing width                                 : 0.1000       eV
 Fermi energy convergence tolerance             : 0.2721E-13   eV
 periodic dipole correction                     : NONE

 ************************** Density Mixing Parameters **************************
  
 density-mixing scheme                          : Pulay
 max. length of mixing history                  :         20
 charge density mixing amplitude                : 0.8000    
 cut-off energy for mixing                      :  400.0       eV

 *******************************************************************************
  
 
                           -------------------------------
                                      Unit Cell
                           -------------------------------
        Real Lattice(A)                      Reciprocal Lattice(1/A)
    12.3642447    -7.1385000     0.0000000        0.508173808   0.000000000   0.000000000
     0.0000000    14.2770000     0.0000000        0.254086904   0.440091427   0.000000000
     0.0000000     0.0000000    27.5000000        0.000000000   0.000000000   0.228479466
 
                       Lattice parameters(A)       Cell Angles
                    a =     14.277000          alpha =   90.000000
                    b =     14.277000          beta  =   90.000000
                    c =     27.500000          gamma =  120.000000
 
                       Current cell volume =          4854.418839       A**3
                                   density =             1.134206   AMU/A**3
                                           =             1.883393     g/cm^3
 
                           -------------------------------
                                     Cell Contents
                           -------------------------------
                         Total number of ions in cell =  270
                      Total number of species in cell =    2
                        Max number of any one species =  162
 
            xxxxxxxxxxxxxxxxxxxxxxxxxxxxxxxxxxxxxxxxxxxxxxxxxxxxxxxxxxxx
            x  Element    Atom        Fractional coordinates of atoms  x
            x            Number           u          v          w      x
            x----------------------------------------------------------x
            x  O            1         0.102000   0.000000   0.645700   x 
            x  O            2         0.000000   0.102000   0.645700   x 
            x  O            3         0.231333   0.231333   0.645700   x 
            x  O            4         0.009111   0.222222   0.724433   x 
            x  O            5         0.111111   0.120222   0.724433   x 
            x  O            6         0.213111   0.324222   0.724433   x 
            x  O            7         0.120222   0.111111   0.566967   x 
            x  O            8         0.222222   0.009111   0.566967   x 
            x  O            9         0.324222   0.213111   0.566967   x 
            x  O           10         0.324222   0.111111   0.803167   x 
            x  O           11         0.222222   0.213111   0.803167   x 
            x  O           12         0.120222   0.009111   0.803167   x 
            x  O           13         0.213111   0.222222   0.960633   x 
            x  O           14         0.111111   0.324222   0.960633   x 
            x  O           15         0.009111   0.120222   0.960633   x 
            x  O           16         0.231333   0.000000   0.881900   x 
            x  O           17         0.000000   0.231333   0.881900   x 
            x  O           18         0.102000   0.102000   0.881900   x 
            x  O           19         0.102000   0.333333   0.645700   x 
            x  O           20         0.000000   0.435333   0.645700   x 
            x  O           21         0.231333   0.564667   0.645700   x 
            x  O           22         0.009111   0.555556   0.724433   x 
            x  O           23         0.111111   0.453556   0.724433   x 
            x  O           24         0.213111   0.657556   0.724433   x 
            x  O           25         0.120222   0.444444   0.566967   x 
            x  O           26         0.222222   0.342444   0.566967   x 
            x  O           27         0.324222   0.546444   0.566967   x 
            x  O           28         0.324222   0.444444   0.803167   x 
            x  O           29         0.222222   0.546444   0.803167   x 
            x  O           30         0.120222   0.342444   0.803167   x 
            x  O           31         0.213111   0.555556   0.960633   x 
            x  O           32         0.111111   0.657556   0.960633   x 
            x  O           33         0.009111   0.453556   0.960633   x 
            x  O           34         0.231333   0.333333   0.881900   x 
            x  O           35         0.000000   0.564667   0.881900   x 
            x  O           36         0.102000   0.435333   0.881900   x 
            x  O           37         0.102000   0.666667   0.645700   x 
            x  O           38         0.000000   0.768667   0.645700   x 
            x  O           39         0.231333   0.898000   0.645700   x 
            x  O           40         0.009111   0.888889   0.724433   x 
            x  O           41         0.111111   0.786889   0.724433   x 
            x  O           42         0.213111   0.990889   0.724433   x 
            x  O           43         0.120222   0.777778   0.566967   x 
            x  O           44         0.222222   0.675778   0.566967   x 
            x  O           45         0.324222   0.879778   0.566967   x 
            x  O           46         0.324222   0.777778   0.803167   x 
            x  O           47         0.222222   0.879778   0.803167   x 
            x  O           48         0.120222   0.675778   0.803167   x 
            x  O           49         0.213111   0.888889   0.960633   x 
            x  O           50         0.111111   0.990889   0.960633   x 
            x  O           51         0.009111   0.786889   0.960633   x 
            x  O           52         0.231333   0.666667   0.881900   x 
            x  O           53         0.000000   0.898000   0.881900   x 
            x  O           54         0.102000   0.768667   0.881900   x 
            x  O           55         0.435333   0.000000   0.645700   x 
            x  O           56         0.333333   0.102000   0.645700   x 
            x  O           57         0.564667   0.231333   0.645700   x 
            x  O           58         0.342444   0.222222   0.724433   x 
            x  O           59         0.444444   0.120222   0.724433   x 
            x  O           60         0.546444   0.324222   0.724433   x 
            x  O           61         0.453556   0.111111   0.566967   x 
            x  O           62         0.555556   0.009111   0.566967   x 
            x  O           63         0.657556   0.213111   0.566967   x 
            x  O           64         0.657556   0.111111   0.803167   x 
            x  O           65         0.555556   0.213111   0.803167   x 
            x  O           66         0.453556   0.009111   0.803167   x 
            x  O           67         0.546444   0.222222   0.960633   x 
            x  O           68         0.444444   0.324222   0.960633   x 
            x  O           69         0.342444   0.120222   0.960633   x 
            x  O           70         0.564667   0.000000   0.881900   x 
            x  O           71         0.333333   0.231333   0.881900   x 
            x  O           72         0.435333   0.102000   0.881900   x 
            x  O           73         0.435333   0.333333   0.645700   x 
            x  O           74         0.333333   0.435333   0.645700   x 
            x  O           75         0.564667   0.564667   0.645700   x 
            x  O           76         0.342444   0.555556   0.724433   x 
            x  O           77         0.444444   0.453556   0.724433   x 
            x  O           78         0.546444   0.657556   0.724433   x 
            x  O           79         0.453556   0.444444   0.566967   x 
            x  O           80         0.555556   0.342444   0.566967   x 
            x  O           81         0.657556   0.546444   0.566967   x 
            x  O           82         0.657556   0.444444   0.803167   x 
            x  O           83         0.555556   0.546444   0.803167   x 
            x  O           84         0.453556   0.342444   0.803167   x 
            x  O           85         0.546444   0.555556   0.960633   x 
            x  O           86         0.444444   0.657556   0.960633   x 
            x  O           87         0.342444   0.453556   0.960633   x 
            x  O           88         0.564667   0.333333   0.881900   x 
            x  O           89         0.333333   0.564667   0.881900   x 
            x  O           90         0.435333   0.435333   0.881900   x 
            x  O           91         0.435333   0.666667   0.645700   x 
            x  O           92         0.333333   0.768667   0.645700   x 
            x  O           93         0.564667   0.898000   0.645700   x 
            x  O           94         0.342444   0.888889   0.724433   x 
            x  O           95         0.444444   0.786889   0.724433   x 
            x  O           96         0.546444   0.990889   0.724433   x 
            x  O           97         0.453556   0.777778   0.566967   x 
            x  O           98         0.555556   0.675778   0.566967   x 
            x  O           99         0.657556   0.879778   0.566967   x 
            x  O          100         0.657556   0.777778   0.803167   x 
            x  O          101         0.555556   0.879778   0.803167   x 
            x  O          102         0.453556   0.675778   0.803167   x 
            x  O          103         0.546444   0.888889   0.960633   x 
            x  O          104         0.444444   0.990889   0.960633   x 
            x  O          105         0.342444   0.786889   0.960633   x 
            x  O          106         0.564667   0.666667   0.881900   x 
            x  O          107         0.333333   0.898000   0.881900   x 
            x  O          108         0.435333   0.768667   0.881900   x 
            x  O          109         0.768667   0.000000   0.645700   x 
            x  O          110         0.666667   0.102000   0.645700   x 
            x  O          111         0.898000   0.231333   0.645700   x 
            x  O          112         0.675778   0.222222   0.724433   x 
            x  O          113         0.777778   0.120222   0.724433   x 
            x  O          114         0.879778   0.324222   0.724433   x 
            x  O          115         0.786889   0.111111   0.566967   x 
            x  O          116         0.888889   0.009111   0.566967   x 
            x  O          117         0.990889   0.213111   0.566967   x 
            x  O          118         0.990889   0.111111   0.803167   x 
            x  O          119         0.888889   0.213111   0.803167   x 
            x  O          120         0.786889   0.009111   0.803167   x 
            x  O          121         0.879778   0.222222   0.960633   x 
            x  O          122         0.777778   0.324222   0.960633   x 
            x  O          123         0.675778   0.120222   0.960633   x 
            x  O          124         0.898000   0.000000   0.881900   x 
            x  O          125         0.666667   0.231333   0.881900   x 
            x  O          126         0.768667   0.102000   0.881900   x 
            x  O          127         0.768667   0.333333   0.645700   x 
            x  O          128         0.666667   0.435333   0.645700   x 
            x  O          129         0.898000   0.564667   0.645700   x 
            x  O          130         0.675778   0.555556   0.724433   x 
            x  O          131         0.777778   0.453556   0.724433   x 
            x  O          132         0.879778   0.657556   0.724433   x 
            x  O          133         0.786889   0.444444   0.566967   x 
            x  O          134         0.888889   0.342444   0.566967   x 
            x  O          135         0.990889   0.546444   0.566967   x 
            x  O          136         0.990889   0.444444   0.803167   x 
            x  O          137         0.888889   0.546444   0.803167   x 
            x  O          138         0.786889   0.342444   0.803167   x 
            x  O          139         0.879778   0.555556   0.960633   x 
            x  O          140         0.777778   0.657556   0.960633   x 
            x  O          141         0.675778   0.453556   0.960633   x 
            x  O          142         0.898000   0.333333   0.881900   x 
            x  O          143         0.666667   0.564667   0.881900   x 
            x  O          144         0.768667   0.435333   0.881900   x 
            x  O          145         0.768667   0.666667   0.645700   x 
            x  O          146         0.666667   0.768667   0.645700   x 
            x  O          147         0.898000   0.898000   0.645700   x 
            x  O          148         0.675778   0.888889   0.724433   x 
            x  O          149         0.777778   0.786889   0.724433   x 
            x  O          150         0.879778   0.990889   0.724433   x 
            x  O          151         0.786889   0.777778   0.566967   x 
            x  O          152         0.888889   0.675778   0.566967   x 
            x  O          153         0.990889   0.879778   0.566967   x 
            x  O          154         0.990889   0.777778   0.803167   x 
            x  O          155         0.888889   0.879778   0.803167   x 
            x  O          156         0.786889   0.675778   0.803167   x 
            x  O          157         0.879778   0.888889   0.960633   x 
            x  O          158         0.777778   0.990889   0.960633   x 
            x  O          159         0.675778   0.786889   0.960633   x 
            x  O          160         0.898000   0.666667   0.881900   x 
            x  O          161         0.666667   0.898000   0.881900   x 
            x  O          162         0.768667   0.768667   0.881900   x 
            x  Al           1         0.000000   0.000000   0.693885   x 
            x  Al           2         0.000000   0.000000   0.597515   x 
            x  Al           3         0.222222   0.111111   0.615151   x 
            x  Al           4         0.111111   0.222222   0.676249   x 
            x  Al           5         0.222222   0.111111   0.754982   x 
            x  Al           6         0.111111   0.222222   0.772618   x 
            x  Al           7         0.222222   0.111111   0.991182   x 
            x  Al           8         0.111111   0.222222   0.536418   x 
            x  Al           9         0.000000   0.000000   0.833715   x 
            x  Al          10         0.222222   0.111111   0.851351   x 
            x  Al          11         0.000000   0.000000   0.930085   x 
            x  Al          12         0.111111   0.222222   0.912449   x 
            x  Al          13         0.000000   0.333333   0.693885   x 
            x  Al          14         0.000000   0.333333   0.597515   x 
            x  Al          15         0.222222   0.444444   0.615151   x 
            x  Al          16         0.111111   0.555556   0.676249   x 
            x  Al          17         0.222222   0.444444   0.754982   x 
            x  Al          18         0.111111   0.555556   0.772618   x 
            x  Al          19         0.222222   0.444444   0.991182   x 
            x  Al          20         0.111111   0.555556   0.536418   x 
            x  Al          21         0.000000   0.333333   0.833715   x 
            x  Al          22         0.222222   0.444444   0.851351   x 
            x  Al          23         0.000000   0.333333   0.930085   x 
            x  Al          24         0.111111   0.555556   0.912449   x 
            x  Al          25         0.000000   0.666667   0.693885   x 
            x  Al          26         0.000000   0.666667   0.597515   x 
            x  Al          27         0.222222   0.777778   0.615151   x 
            x  Al          28         0.111111   0.888889   0.676249   x 
            x  Al          29         0.222222   0.777778   0.754982   x 
            x  Al          30         0.111111   0.888889   0.772618   x 
            x  Al          31         0.222222   0.777778   0.991182   x 
            x  Al          32         0.111111   0.888889   0.536418   x 
            x  Al          33         0.000000   0.666667   0.833715   x 
            x  Al          34         0.222222   0.777778   0.851351   x 
            x  Al          35         0.000000   0.666667   0.930085   x 
            x  Al          36         0.111111   0.888889   0.912449   x 
            x  Al          37         0.333333   0.000000   0.693885   x 
            x  Al          38         0.333333   0.000000   0.597515   x 
            x  Al          39         0.555556   0.111111   0.615151   x 
            x  Al          40         0.444444   0.222222   0.676249   x 
            x  Al          41         0.555556   0.111111   0.754982   x 
            x  Al          42         0.444444   0.222222   0.772618   x 
            x  Al          43         0.555556   0.111111   0.991182   x 
            x  Al          44         0.444444   0.222222   0.536418   x 
            x  Al          45         0.333333   0.000000   0.833715   x 
            x  Al          46         0.555556   0.111111   0.851351   x 
            x  Al          47         0.333333   0.000000   0.930085   x 
            x  Al          48         0.444444   0.222222   0.912449   x 
            x  Al          49         0.333333   0.333333   0.693885   x 
            x  Al          50         0.333333   0.333333   0.597515   x 
            x  Al          51         0.555556   0.444444   0.615151   x 
            x  Al          52         0.444444   0.555556   0.676249   x 
            x  Al          53         0.555556   0.444444   0.754982   x 
            x  Al          54         0.444444   0.555556   0.772618   x 
            x  Al          55         0.555556   0.444444   0.991182   x 
            x  Al          56         0.444444   0.555556   0.536418   x 
            x  Al          57         0.333333   0.333333   0.833715   x 
            x  Al          58         0.555556   0.444444   0.851351   x 
            x  Al          59         0.333333   0.333333   0.930085   x 
            x  Al          60         0.444444   0.555556   0.912449   x 
            x  Al          61         0.333333   0.666667   0.693885   x 
            x  Al          62         0.333333   0.666667   0.597515   x 
            x  Al          63         0.555556   0.777778   0.615151   x 
            x  Al          64         0.444444   0.888889   0.676249   x 
            x  Al          65         0.555556   0.777778   0.754982   x 
            x  Al          66         0.444444   0.888889   0.772618   x 
            x  Al          67         0.555556   0.777778   0.991182   x 
            x  Al          68         0.444444   0.888889   0.536418   x 
            x  Al          69         0.333333   0.666667   0.833715   x 
            x  Al          70         0.555556   0.777778   0.851351   x 
            x  Al          71         0.333333   0.666667   0.930085   x 
            x  Al          72         0.444444   0.888889   0.912449   x 
            x  Al          73         0.666667   0.000000   0.693885   x 
            x  Al          74         0.666667   0.000000   0.597515   x 
            x  Al          75         0.888889   0.111111   0.615151   x 
            x  Al          76         0.777778   0.222222   0.676249   x 
            x  Al          77         0.888889   0.111111   0.754982   x 
            x  Al          78         0.777778   0.222222   0.772618   x 
            x  Al          79         0.888889   0.111111   0.991182   x 
            x  Al          80         0.777778   0.222222   0.536418   x 
            x  Al          81         0.666667   0.000000   0.833715   x 
            x  Al          82         0.888889   0.111111   0.851351   x 
            x  Al          83         0.666667   0.000000   0.930085   x 
            x  Al          84         0.777778   0.222222   0.912449   x 
            x  Al          85         0.666667   0.333333   0.693885   x 
            x  Al          86         0.666667   0.333333   0.597515   x 
            x  Al          87         0.888889   0.444444   0.615151   x 
            x  Al          88         0.777778   0.555556   0.676249   x 
            x  Al          89         0.888889   0.444444   0.754982   x 
            x  Al          90         0.777778   0.555556   0.772618   x 
            x  Al          91         0.888889   0.444444   0.991182   x 
            x  Al          92         0.777778   0.555556   0.536418   x 
            x  Al          93         0.666667   0.333333   0.833715   x 
            x  Al          94         0.888889   0.444444   0.851351   x 
            x  Al          95         0.666667   0.333333   0.930085   x 
            x  Al          96         0.777778   0.555556   0.912449   x 
            x  Al          97         0.666667   0.666667   0.693885   x 
            x  Al          98         0.666667   0.666667   0.597515   x 
            x  Al          99         0.888889   0.777778   0.615151   x 
            x  Al         100         0.777778   0.888889   0.676249   x 
            x  Al         101         0.888889   0.777778   0.754982   x 
            x  Al         102         0.777778   0.888889   0.772618   x 
            x  Al         103         0.888889   0.777778   0.991182   x 
            x  Al         104         0.777778   0.888889   0.536418   x 
            x  Al         105         0.666667   0.666667   0.833715   x 
            x  Al         106         0.888889   0.777778   0.851351   x 
            x  Al         107         0.666667   0.666667   0.930085   x 
            x  Al         108         0.777778   0.888889   0.912449   x 
            xxxxxxxxxxxxxxxxxxxxxxxxxxxxxxxxxxxxxxxxxxxxxxxxxxxxxxxxxxxx
 
 
                         No user defined ionic velocities
 
                           -------------------------------
                                   Details of Species
                           -------------------------------
 
                               Mass of species in AMU
                                    O   15.9994000
                                    Al   26.9815400
 
                          Electric Quadrupole Moment (Barn)
                                    O   -0.0255800 Isotope 17
                                    Al    0.1466000 Isotope 27
 
                          Files used for pseudopotentials:
                                    O O_00.usp
                                    Al Al_00.usp
 
                           -------------------------------
                              k-Points For BZ Sampling
                           -------------------------------
                       MP grid size for SCF calculation is  2  2  1
                            with an offset of   0.000  0.000  0.000
                       Number of kpoints used =   2
 
                           -------------------------------
                               Symmetry and Constraints
                           -------------------------------
 
                      Cell is a supercell containing 9 primitive cells
                      Maximum deviation from symmetry =  0.00000         ANG
 
                      Number of symmetry operations   = 1
                      Number of ionic constraints     = 3
                      Point group of crystal =     1: C1, 1, 1
                      Space group of crystal =   147: P-3, -P 3
 
             Set iprint > 1 for details on symmetry rotations/translations
 
                         Centre of mass is constrained
             Set iprint > 1 for details of linear ionic constraints
 
                         Number of cell constraints= 0
                         Cell constraints are:  1 2 3 4 5 6
 
                         External pressure/stress (GPa)
                          0.00000   0.00000   0.00000
                                    0.00000   0.00000
                                              0.00000
  
+---------------- MEMORY AND SCRATCH DISK ESTIMATES PER PROCESS --------------+
|                                                     Memory          Disk    |
| Baseline code, static data and system overhead      784.0 MB         0.0 MB |
| BLAS internal memory storage                          0.0 MB         0.0 MB |
| Model and support data                              115.9 MB         0.0 MB |
| Electronic energy minimisation requirements          81.0 MB         0.0 MB |
| Force calculation requirements                        3.3 MB         0.0 MB |
|                                               ----------------------------- |
| Approx. total storage required per process          980.9 MB         0.0 MB |
|                                                                             |
| Requirements will fluctuate during execution and may exceed these estimates |
+-----------------------------------------------------------------------------+
Calculating approximate eigenstates for fixed initial Hamiltonian
Cut-off for approx. calculation is  155.625 eV
Improving approx. states at cut-off of  200.000 eV
Resetting cut-off to  400.000 eV
Calculating total energy with cut-off of  400.000 eV.
------------------------------------------------------------------------ <-- SCF
SCF loop      Energy           Fermi           Energy gain       Timer   <-- SCF
                               energy          per atom          (sec)   <-- SCF
------------------------------------------------------------------------ <-- SCF
Initial  -7.61263049E+004  0.00000000E+000                       214.76  <-- SCF
      1  -7.79035284E+004  1.71446039E+000   6.58230918E+000     239.04  <-- SCF
      2  -7.79104250E+004  1.71924235E+000   2.55428735E-002     264.13  <-- SCF
      3  -7.78188307E+004  1.84815236E+000  -3.39237885E-001     291.17  <-- SCF
      4  -7.77199042E+004  1.30434568E+000  -3.66394788E-001     319.56  <-- SCF
      5  -7.77148462E+004  1.11487703E+000  -1.87331999E-002     348.63  <-- SCF
      6  -7.77125653E+004  1.04424887E+000  -8.44759302E-003     377.69  <-- SCF
      7  -7.77102390E+004  1.02666944E+000  -8.61622421E-003     404.89  <-- SCF
      8  -7.77081458E+004  9.90607495E-001  -7.75262415E-003     433.50  <-- SCF
      9  -7.77060030E+004  1.09932665E+000  -7.93595012E-003     461.58  <-- SCF
     10  -7.77051703E+004  1.16176322E+000  -3.08436256E-003     488.12  <-- SCF
------------------------------------------------------------------------ <-- SCF
 
Final energy, E             =  -77705.17026661     eV
Final free energy (E-TS)    =  -77705.17026662     eV
(energies not corrected for finite basis set)
 
NB est. 0K energy (E-0.5TS)      =  -77705.17026661     eV
 

Writing analysis data to al3x3.castep_bin

Writing model to al3x3.check
 
 ************************** Forces **************************
 *                                                          *
 *               Cartesian components (eV/A)                *
 * -------------------------------------------------------- *
 *                         x            y            z      *
 *                                                          *
 * O               1      0.16833      0.02130      0.72247 *
 * O               2     -0.10298      0.12965      0.71849 *
 * O               3     -0.06229     -0.15233      0.72534 *
 * O               4     -0.10791      0.03204      0.30157 *
 * O               5      0.01938     -0.10963      0.30324 *
 * O               6      0.08893      0.07459      0.30220 *
 * O               7     -1.64494      1.74385     -1.02045 *
 * O               8     -0.68459     -2.29176     -1.03018 *
 * O               9      2.34521      0.55377     -1.02302 *
 * O              10      0.09019     -0.02689     -0.30887 *
 * O              11     -0.01797      0.09076     -0.31357 *
 * O              12     -0.06977     -0.06416     -0.30938 *
 * O              13      1.62748     -1.73499      0.97751 *
 * O              14      0.69581      2.28444      0.98098 *
 * O              15     -2.33624     -0.54364      0.97576 *
 * O              16     -0.17588     -0.01386     -0.67494 *
 * O              17      0.09690     -0.14427     -0.66909 *
 * O              18      0.07694      0.15437     -0.67310 *
 * O              19      0.17089      0.02232      0.72137 *
 * O              20     -0.10412      0.13109      0.71885 *
 * O              21     -0.06447     -0.15432      0.72083 *
 * O              22     -0.10638      0.03234      0.30155 *
 * O              23      0.01963     -0.10944      0.30432 *
 * O              24      0.08934      0.07441      0.30140 *
 * O              25     -1.63902      1.73720     -1.02018 *
 * O              26     -0.67447     -2.26540     -1.03702 *
 * O              27      2.32062      0.54985     -1.02585 *
 * O              28      0.09213     -0.02662     -0.30921 *
 * O              29     -0.01905      0.09157     -0.31176 *
 * O              30     -0.06988     -0.06462     -0.30905 *
 * O              31      1.62791     -1.73854      0.97966 *
 * O              32      0.69851      2.29375      0.97194 *
 * O              33     -2.34316     -0.54564      0.97031 *
 * O              34     -0.17816     -0.01342     -0.67357 *
 * O              35      0.09723     -0.14310     -0.67035 *
 * O              36      0.07794      0.15361     -0.67035 *
 * O              37      0.17043      0.02131      0.72267 *
 * O              38     -0.10169      0.13166      0.71740 *
 * O              39     -0.06259     -0.15656      0.72224 *
 * O              40     -0.10797      0.03235      0.30111 *
 * O              41      0.01879     -0.10991      0.30414 *
 * O              42      0.09069      0.07509      0.30223 *
 * O              43     -1.63308      1.72883     -1.02383 *
 * O              44     -0.67696     -2.26851     -1.03505 *
 * O              45      2.30727      0.54858     -1.03657 *
 * O              46      0.09148     -0.02553     -0.30985 *
 * O              47     -0.01772      0.09174     -0.31191 *
 * O              48     -0.07033     -0.06422     -0.30998 *
 * O              49      1.63626     -1.75068      0.96771 *
 * O              50      0.69804      2.29796      0.97077 *
 * O              51     -2.31824     -0.54286      0.98221 *
 * O              52     -0.17650     -0.01132     -0.67150 *
 * O              53      0.09633     -0.14472     -0.66920 *
 * O              54      0.07669      0.15472     -0.67062 *
 * O              55      0.16772      0.02218      0.72370 *
 * O              56     -0.10237      0.13040      0.72057 *
 * O              57     -0.06270     -0.15557      0.72056 *
 * O              58     -0.10622      0.03369      0.30252 *
 * O              59      0.01856     -0.11116      0.30440 *
 * O              60      0.08958      0.07614      0.30122 *
 * O              61     -1.63294      1.73299     -1.02809 *
 * O              62     -0.69050     -2.29883     -1.02372 *
 * O              63      2.29817      0.54525     -1.03782 *
 * O              64      0.09062     -0.02659     -0.30916 *
 * O              65     -0.01740      0.09059     -0.31299 *
 * O              66     -0.07098     -0.06349     -0.30914 *
 * O              67      1.62940     -1.73741      0.97258 *
 * O              68      0.68726      2.26396      0.98427 *
 * O              69     -2.31992     -0.53858      0.97357 *
 * O              70     -0.17791     -0.01142     -0.67499 *
 * O              71      0.09972     -0.14479     -0.66616 *
 * O              72      0.07583      0.15603     -0.67067 *
 * O              73      0.17050      0.02064      0.72420 *
 * O              74     -0.10428      0.12943      0.71998 *
 * O              75     -0.06479     -0.15497      0.72213 *
 * O              76     -0.10687      0.03218      0.30130 *
 * O              77      0.01786     -0.10986      0.30347 *
 * O              78      0.09000      0.07505      0.30131 *
 * O              79     -1.64269      1.74097     -1.02050 *
 * O              80     -0.68018     -2.27278     -1.03880 *
 * O              81      2.33291      0.55163     -1.02638 *
 * O              82      0.09112     -0.02820     -0.31047 *
 * O              83     -0.01873      0.09208     -0.31120 *
 * O              84     -0.07036     -0.06427     -0.30954 *
 * O              85      1.63620     -1.74271      0.97356 *
 * O              86      0.69298      2.27086      0.98166 *
 * O              87     -2.35155     -0.54129      0.96410 *
 * O              88     -0.18098     -0.01227     -0.67218 *
 * O              89      0.09594     -0.14365     -0.66869 *
 * O              90      0.07741      0.15413     -0.67282 *
 * O              91      0.17093      0.02121      0.72356 *
 * O              92     -0.10526      0.13211      0.71802 *
 * O              93     -0.06266     -0.15727      0.72346 *
 * O              94     -0.10830      0.03169      0.30181 *
 * O              95      0.01777     -0.11014      0.30472 *
 * O              96      0.09098      0.07538      0.30297 *
 * O              97     -1.64331      1.74730     -1.01804 *
 * O              98     -0.67190     -2.26639     -1.04127 *
 * O              99      2.31697      0.54999     -1.03221 *
 * O             100      0.09045     -0.02630     -0.30962 *
 * O             101     -0.01849      0.09109     -0.31151 *
 * O             102     -0.07032     -0.06330     -0.30917 *
 * O             103      1.64383     -1.76042      0.96168 *
 * O             104      0.69019      2.27292      0.98208 *
 * O             105     -2.31559     -0.53944      0.98165 *
 * O             106     -0.17801     -0.01160     -0.67383 *
 * O             107      0.09817     -0.14494     -0.66768 *
 * O             108      0.07683      0.15423     -0.67115 *
 * O             109      0.16935      0.02056      0.72563 *
 * O             110     -0.10299      0.13370      0.72210 *
 * O             111     -0.06319     -0.15442      0.72291 *
 * O             112     -0.10698      0.03307      0.30191 *
 * O             113      0.01929     -0.11012      0.30350 *
 * O             114      0.08873      0.07556      0.30186 *
 * O             115     -1.64866      1.74769     -1.01841 *
 * O             116     -0.67770     -2.27869     -1.03766 *
 * O             117      2.32480      0.54979     -1.02724 *
 * O             118      0.09105     -0.02700     -0.30968 *
 * O             119     -0.01789      0.09136     -0.31315 *
 * O             120     -0.06915     -0.06375     -0.30852 *
 * O             121      1.63236     -1.73823      0.97481 *
 * O             122      0.68525      2.26530      0.98358 *
 * O             123     -2.33954     -0.54623      0.96873 *
 * O             124     -0.17733     -0.01288     -0.67384 *
 * O             125      0.09910     -0.14373     -0.66918 *
 * O             126      0.07855      0.15338     -0.66972 *
 * O             127      0.16945      0.02090      0.72198 *
 * O             128     -0.10325      0.12925      0.71724 *
 * O             129     -0.06430     -0.15548      0.72339 *
 * O             130     -0.10762      0.03272      0.30301 *
 * O             131      0.01892     -0.10987      0.30371 *
 * O             132      0.08961      0.07553      0.30043 *
 * O             133     -1.63859      1.73939     -1.02515 *
 * O             134     -0.67577     -2.26968     -1.03861 *
 * O             135      2.33438      0.55323     -1.02652 *
 * O             136      0.09081     -0.02657     -0.31104 *
 * O             137     -0.01744      0.09062     -0.31298 *
 * O             138     -0.07126     -0.06458     -0.30865 *
 * O             139      1.62998     -1.73522      0.97920 *
 * O             140      0.69788      2.29431      0.97529 *
 * O             141     -2.35430     -0.54470      0.96313 *
 * O             142     -0.17717     -0.01108     -0.67100 *
 * O             143      0.09696     -0.14343     -0.67203 *
 * O             144      0.07943      0.15140     -0.67137 *
 * O             145      0.17047      0.02101      0.72458 *
 * O             146     -0.10354      0.13102      0.71762 *
 * O             147     -0.06142     -0.15505      0.71864 *
 * O             148     -0.10836      0.03333      0.30123 *
 * O             149      0.01700     -0.10947      0.30456 *
 * O             150      0.09043      0.07281      0.30218 *
 * O             151     -1.64152      1.74339     -1.01792 *
 * O             152     -0.68188     -2.28108     -1.03290 *
 * O             153      2.30041      0.54757     -1.03705 *
 * O             154      0.09104     -0.02599     -0.30861 *
 * O             155     -0.01661      0.09145     -0.31272 *
 * O             156     -0.06965     -0.06466     -0.30875 *
 * O             157      1.63273     -1.74049      0.97611 *
 * O             158      0.69537      2.29110      0.97784 *
 * O             159     -2.33412     -0.53985      0.97706 *
 * O             160     -0.17699     -0.01160     -0.67073 *
 * O             161      0.09833     -0.14442     -0.67274 *
 * O             162      0.07705      0.15334     -0.67229 *
 * Al              1      0.00030     -0.00054     -0.04539 *
 * Al              2     -0.00696     -0.00660     -0.86091 *
 * Al              3     -0.00088     -0.00379     -1.95230 *
 * Al              4      0.00064     -0.00049     -0.25313 *
 * Al              5      0.00020     -0.00080     -0.07877 *
 * Al              6      0.00073     -0.00019      0.08118 *
 * Al              7      0.00497      0.00447     -7.33357 *
 * Al              8      0.01067      0.01035      7.33378 *
 * Al              9      0.00065     -0.00041      0.05104 *
 * Al             10      0.00053     -0.00063      0.27285 *
 * Al             11     -0.00395     -0.00243      0.85780 *
 * Al             12      0.00375      0.00019      1.96585 *
 * Al             13      0.00034     -0.00079     -0.04528 *
 * Al             14     -0.00642      0.00390     -0.86018 *
 * Al             15      0.00092     -0.00699     -1.96185 *
 * Al             16      0.00062     -0.00018     -0.25297 *
 * Al             17      0.00014     -0.00062     -0.07863 *
 * Al             18      0.00075     -0.00033      0.08107 *
 * Al             19     -0.00933      0.00764     -7.33217 *
 * Al             20      0.01409      0.00384      7.33239 *
 * Al             21      0.00080     -0.00065      0.05089 *
 * Al             22      0.00048     -0.00061      0.27306 *
 * Al             23     -0.00109     -0.00794      0.85786 *
 * Al             24      0.00542     -0.00036      1.96339 *
 * Al             25      0.00045     -0.00076     -0.04533 *
 * Al             26     -0.00104      0.00677     -0.85741 *
 * Al             27      0.00272     -0.00353     -1.96449 *
 * Al             28      0.00077     -0.00030     -0.25274 *
 * Al             29      0.00032     -0.00069     -0.07879 *
 * Al             30      0.00073     -0.00020      0.08095 *
 * Al             31      0.00678     -0.00413     -7.33340 *
 * Al             32     -0.00701      0.00242      7.33404 *
 * Al             33      0.00069     -0.00056      0.05066 *
 * Al             34      0.00053     -0.00069      0.27286 *
 * Al             35     -0.00353      0.00075      0.86139 *
 * Al             36     -0.00162     -0.00188      1.96380 *
 * Al             37      0.00039     -0.00070     -0.04526 *
 * Al             38      0.00245     -0.00414     -0.86068 *
 * Al             39      0.00284      0.00359     -1.96070 *
 * Al             40      0.00058     -0.00036     -0.25319 *
 * Al             41      0.00032     -0.00067     -0.07875 *
 * Al             42      0.00071     -0.00041      0.08101 *
 * Al             43     -0.01064      0.00172     -7.33347 *
 * Al             44      0.01526     -0.00237      7.33273 *
 * Al             45      0.00060     -0.00042      0.05083 *
 * Al             46      0.00055     -0.00064      0.27283 *
 * Al             47      0.00681     -0.00090      0.86153 *
 * Al             48      0.00079      0.00357      1.97169 *
 * Al             49      0.00045     -0.00065     -0.04551 *
 * Al             50     -0.00971      0.01114     -0.85682 *
 * Al             51      0.00098     -0.00632     -1.95779 *
 * Al             52      0.00060     -0.00032     -0.25300 *
 * Al             53      0.00025     -0.00068     -0.07883 *
 * Al             54      0.00080     -0.00032      0.08100 *
 * Al             55     -0.01846     -0.00031     -7.33276 *
 * Al             56      0.01089      0.01053      7.33347 *
 * Al             57      0.00042     -0.00049      0.05097 *
 * Al             58      0.00052     -0.00044      0.27293 *
 * Al             59      0.00353     -0.01510      0.86083 *
 * Al             60      0.00496      0.00623      1.96478 *
 * Al             61      0.00057     -0.00063     -0.04536 *
 * Al             62     -0.00976      0.00287     -0.85861 *
 * Al             63      0.00388     -0.00702     -1.96119 *
 * Al             64      0.00057     -0.00029     -0.25290 *
 * Al             65      0.00019     -0.00063     -0.07880 *
 * Al             66      0.00060     -0.00046      0.08095 *
 * Al             67     -0.00826     -0.01070     -7.33291 *
 * Al             68     -0.00760      0.00550      7.33146 *
 * Al             69      0.00066     -0.00058      0.05071 *
 * Al             70      0.00062     -0.00061      0.27309 *
 * Al             71      0.00326     -0.00172      0.86568 *
 * Al             72     -0.00475      0.00315      1.96703 *
 * Al             73      0.00047     -0.00048     -0.04554 *
 * Al             74     -0.00325     -0.00683     -0.85371 *
 * Al             75      0.00409     -0.00539     -1.95611 *
 * Al             76      0.00051     -0.00061     -0.25305 *
 * Al             77      0.00037     -0.00073     -0.07878 *
 * Al             78      0.00069     -0.00033      0.08105 *
 * Al             79     -0.00216      0.00372     -7.33328 *
 * Al             80     -0.00009      0.01666      7.33391 *
 * Al             81      0.00062     -0.00060      0.05108 *
 * Al             82      0.00060     -0.00064      0.27322 *
 * Al             83      0.00556     -0.00335      0.85441 *
 * Al             84      0.00411      0.00604      1.96822 *
 * Al             85      0.00042     -0.00058     -0.04526 *
 * Al             86     -0.00593     -0.00370     -0.86274 *
 * Al             87     -0.00124     -0.00657     -1.95882 *
 * Al             88      0.00066     -0.00023     -0.25303 *
 * Al             89      0.00019     -0.00073     -0.07879 *
 * Al             90      0.00075     -0.00042      0.08102 *
 * Al             91     -0.01520      0.00047     -7.33484 *
 * Al             92      0.00784      0.00170      7.33217 *
 * Al             93      0.00064     -0.00039      0.05076 *
 * Al             94      0.00060     -0.00058      0.27277 *
 * Al             95      0.00502     -0.01705      0.86031 *
 * Al             96      0.00711      0.00141      1.96172 *
 * Al             97      0.00062     -0.00060     -0.04539 *
 * Al             98     -0.00986      0.00674     -0.85920 *
 * Al             99      0.00551     -0.00156     -1.96159 *
 * Al            100      0.00071     -0.00033     -0.25291 *
 * Al            101      0.00019     -0.00068     -0.07887 *
 * Al            102      0.00068     -0.00042      0.08085 *
 * Al            103      0.00358      0.00174     -7.33453 *
 * Al            104      0.00307      0.00729      7.33306 *
 * Al            105      0.00045     -0.00046      0.05096 *
 * Al            106      0.00049     -0.00055      0.27294 *
 * Al            107     -0.00089     -0.00307      0.85795 *
 * Al            108      0.00286      0.00023      1.96462 *
 *                                                          *
 ************************************************************

Writing analysis data to al3x3.castep_bin

Writing model to al3x3.check
 
 A BibTeX formatted list of references used in this run has been written to 
 al3x3.bib
 
Initialisation time =      3.31 s
Calculation time    =    509.93 s
Finalisation time   =     22.48 s
Total time          =    535.73 s
Peak Memory Use     = 1639380 kB
  
Overall parallel efficiency rating: Good (76%)                                  
  
Data was distributed by:-
G-vector (64-way); efficiency rating: Good (77%)                                
k-point (2-way); efficiency rating: Ideal (100%)                                
  
Parallel notes:
1) Calculation only took 513.3 s, so efficiency estimates may be inaccurate.    
