 +-------------------------------------------------+
 |                                                 |
 |      CCC   AA    SSS  TTTTT  EEEEE  PPPP        |
 |     C     A  A  S       T    E      P   P       |
 |     C     AAAA   SS     T    EEE    PPPP        |
 |     C     A  A     S    T    E      P           |
 |      CCC  A  A  SSS     T    EEEEE  P           |
 |                                                 |
 +-------------------------------------------------+
 |                                                 |
 | Welcome to Academic Release CASTEP version 21.11|          
 | Ab Initio Total Energy Program                  |
 |                                                 |
 | Authors:                                        |
 | M. Segall, M. Probert, C. Pickard, P. Hasnip,   |
 | S. Clark, K. Refson, J. R. Yates, M. Payne      |
 |                                                 |
 | Contributors:                                   |
 | P. Lindan, P. Haynes, J. White, V. Milman,      |
 | N. Govind, M. Gibson, P. Tulip, V. Cocula,      |
 | B. Montanari, D. Quigley, M. Glover,            |
 | L. Bernasconi, A. Perlov, M. Plummer,           |
 | E. McNellis, J. Meyer, J. Gale, D. Jochym       |
 | J. Aarons, B. Walker, R. Gillen, D. Jones       |
 | T. Green, I. J. Bush, C. J. Armstrong,          |
 | E. J. Higgins, E. L. Brown, M. S. McFly,        |
 | J. Wilkins, B-C. Shih, P. J. P. Byrne,          |
 | R. J. Maurer, J. C. Womack, J. Dziedzic,        |
 | A. Bartok-Partay, L. LeBlanc                    |
 |                                                 |
 | Copyright (c) 2000 - 2021                       |
 |                                                 |
 |     Distributed under license from Cambridge    |
 |     Enterprise for academic use only.           |
 |                                                 |
 | Please cite                                     |
 |                                                 |
 |     "First principles methods using CASTEP"     |
 |                                                 |
 |         Zeitschrift fuer Kristallographie       |
 |           220(5-6) pp. 567-570 (2005)           |
 |                                                 |
 | S. J. Clark, M. D. Segall, C. J. Pickard,       |
 | P. J. Hasnip, M. J. Probert, K. Refson,         |
 | M. C. Payne                                     |
 |                                                 |
 |       in all publications arising from          |
 |              your use of CASTEP                 |
 |                                                 |
 +-------------------------------------------------+
 |                                                 |
 |              http://www.castep.org              |
 |                                                 |
 +-------------------------------------------------+
 
 
 
 Compiled for linux_x86_64_cray-XT on Tue, 01 Mar 2022 09:19:15 +0000
 from code version 7d4405a8a+  HEAD  Sat Nov 27 13:38:33 2021 +0000
 Compiler: Cray Fortran 12.0.3; Optimisation: fast
 MATHLIBS: LibSci (LAPACK version 3.6.1)
 FFT Lib : fftw3 version commercial-fftw-3.3.8-sse2-avx-avx2-avx2_128
 Fundamental constants values: CODATA 2014
 
 Run started: Wed, 02 Mar 2022 10:56:03 +0000
 
 Pseudo atomic calculation performed for O 2s2 2p4
 
 Converged in 13 iterations to a total energy of -430.9847 eV
 
 Pseudo atomic calculation performed for Al 3s2 3p1
 
 Converged in 14 iterations to a total energy of -53.3906 eV
 Calculation parallelised over 128 processes.
 Data is distributed by G-vector(64-way) and k-point(2-way)

 ************************************ Title ************************************
 3x3 sapphire surface benchmark (v1.1)

 ***************************** General Parameters ******************************
  
 output verbosity                               : normal  (1)
 write checkpoint data to                       : al3x3.check
 type of calculation                            : single point energy
 stress calculation                             : off
 density difference calculation                 : off
 electron localisation func (ELF) calculation   : off
 Hirshfeld analysis                             : off
 polarisation (Berry phase) analysis            : off
 molecular orbital projected DOS                : off
 deltaSCF calculation                           : off
 unlimited duration calculation
 timing information                             : on
 memory usage estimate                          : on
 write extra output files                       : on
 write final potential to formatted file        : off
 write final density to formatted file          : off
 write BibTeX reference list                    : on
 write OTFG pseudopotential files               : on
 write electrostatic potential file             : on
 write bands file                               : on
 checkpoint writing                             : both castep_bin and check files
  
 output         length unit                     : A
 output           mass unit                     : amu
 output           time unit                     : ps
 output         charge unit                     : e
 output           spin unit                     : hbar/2
 output         energy unit                     : eV
 output          force unit                     : eV/A
 output       velocity unit                     : A/ps
 output       pressure unit                     : GPa
 output     inv_length unit                     : 1/A
 output      frequency unit                     : cm-1
 output force constant unit                     : eV/A**2
 output         volume unit                     : A**3
 output   IR intensity unit                     : (D/A)**2/amu
 output         dipole unit                     : D
 output         efield unit                     : eV/A/e
 output        entropy unit                     : J/mol/K
 output    efield chi2 unit                     : pm/V
  
 wavefunctions paging                           : none
 random number generator seed                   :          1
 data distribution                              : optimal for this architecture
 optimization strategy                          : maximize speed(+++)

 *********************** Exchange-Correlation Parameters ***********************
  
 using functional                               : Perdew Wang (1991)
 relativistic treatment                         : Koelling-Harmon
 DFT+D: Semi-empirical dispersion correction    : off

 ************************* Pseudopotential Parameters **************************
  
 pseudopotential representation                 : reciprocal space
 <beta|phi> representation                      : reciprocal space
 spin-orbit coupling                            : off

 **************************** Basis Set Parameters *****************************
  
 plane wave basis set cut-off                   :   400.0000   eV
 size of standard grid                          :     1.7500
 size of   fine   gmax                          :    17.9311   1/A
 finite basis set correction                    : none

 **************************** Electronic Parameters ****************************
  
 number of  electrons                           :  1296.    
 net charge of system                           :  0.000    
 treating system as non-spin-polarized
 number of bands                                :        768

 ********************* Electronic Minimization Parameters **********************
  
 Method: Treating system as metallic with density mixing treatment of electrons,
         and number of  SD  steps               :          1
         and number of  CG  steps               :          4
  
 total energy / atom convergence tol.           : 0.1500E-01   eV
 eigen-energy convergence tolerance             : 0.1000E-05   eV
 max force / atom convergence tol.              : ignored
 convergence tolerance window                   :          3   cycles
 max. number of SCF cycles                      :         40
 smearing scheme                                : Gaussian
 smearing width                                 : 0.1000       eV
 Fermi energy convergence tolerance             : 0.2721E-13   eV
 periodic dipole correction                     : NONE

 ************************** Density Mixing Parameters **************************
  
 density-mixing scheme                          : Pulay
 max. length of mixing history                  :         20
 charge density mixing amplitude                : 0.8000    
 cut-off energy for mixing                      :  400.0       eV

 *******************************************************************************
  
 
                           -------------------------------
                                      Unit Cell
                           -------------------------------
        Real Lattice(A)                      Reciprocal Lattice(1/A)
    12.3642447    -7.1385000     0.0000000        0.508173808   0.000000000   0.000000000
     0.0000000    14.2770000     0.0000000        0.254086904   0.440091427   0.000000000
     0.0000000     0.0000000    27.5000000        0.000000000   0.000000000   0.228479466
 
                       Lattice parameters(A)       Cell Angles
                    a =     14.277000          alpha =   90.000000
                    b =     14.277000          beta  =   90.000000
                    c =     27.500000          gamma =  120.000000
 
                       Current cell volume =          4854.418839       A**3
                                   density =             1.134206   AMU/A**3
                                           =             1.883393     g/cm^3
 
                           -------------------------------
                                     Cell Contents
                           -------------------------------
                         Total number of ions in cell =  270
                      Total number of species in cell =    2
                        Max number of any one species =  162
 
            xxxxxxxxxxxxxxxxxxxxxxxxxxxxxxxxxxxxxxxxxxxxxxxxxxxxxxxxxxxx
            x  Element    Atom        Fractional coordinates of atoms  x
            x            Number           u          v          w      x
            x----------------------------------------------------------x
            x  O            1         0.102000   0.000000   0.645700   x 
            x  O            2         0.000000   0.102000   0.645700   x 
            x  O            3         0.231333   0.231333   0.645700   x 
            x  O            4         0.009111   0.222222   0.724433   x 
            x  O            5         0.111111   0.120222   0.724433   x 
            x  O            6         0.213111   0.324222   0.724433   x 
            x  O            7         0.120222   0.111111   0.566967   x 
            x  O            8         0.222222   0.009111   0.566967   x 
            x  O            9         0.324222   0.213111   0.566967   x 
            x  O           10         0.324222   0.111111   0.803167   x 
            x  O           11         0.222222   0.213111   0.803167   x 
            x  O           12         0.120222   0.009111   0.803167   x 
            x  O           13         0.213111   0.222222   0.960633   x 
            x  O           14         0.111111   0.324222   0.960633   x 
            x  O           15         0.009111   0.120222   0.960633   x 
            x  O           16         0.231333   0.000000   0.881900   x 
            x  O           17         0.000000   0.231333   0.881900   x 
            x  O           18         0.102000   0.102000   0.881900   x 
            x  O           19         0.102000   0.333333   0.645700   x 
            x  O           20         0.000000   0.435333   0.645700   x 
            x  O           21         0.231333   0.564667   0.645700   x 
            x  O           22         0.009111   0.555556   0.724433   x 
            x  O           23         0.111111   0.453556   0.724433   x 
            x  O           24         0.213111   0.657556   0.724433   x 
            x  O           25         0.120222   0.444444   0.566967   x 
            x  O           26         0.222222   0.342444   0.566967   x 
            x  O           27         0.324222   0.546444   0.566967   x 
            x  O           28         0.324222   0.444444   0.803167   x 
            x  O           29         0.222222   0.546444   0.803167   x 
            x  O           30         0.120222   0.342444   0.803167   x 
            x  O           31         0.213111   0.555556   0.960633   x 
            x  O           32         0.111111   0.657556   0.960633   x 
            x  O           33         0.009111   0.453556   0.960633   x 
            x  O           34         0.231333   0.333333   0.881900   x 
            x  O           35         0.000000   0.564667   0.881900   x 
            x  O           36         0.102000   0.435333   0.881900   x 
            x  O           37         0.102000   0.666667   0.645700   x 
            x  O           38         0.000000   0.768667   0.645700   x 
            x  O           39         0.231333   0.898000   0.645700   x 
            x  O           40         0.009111   0.888889   0.724433   x 
            x  O           41         0.111111   0.786889   0.724433   x 
            x  O           42         0.213111   0.990889   0.724433   x 
            x  O           43         0.120222   0.777778   0.566967   x 
            x  O           44         0.222222   0.675778   0.566967   x 
            x  O           45         0.324222   0.879778   0.566967   x 
            x  O           46         0.324222   0.777778   0.803167   x 
            x  O           47         0.222222   0.879778   0.803167   x 
            x  O           48         0.120222   0.675778   0.803167   x 
            x  O           49         0.213111   0.888889   0.960633   x 
            x  O           50         0.111111   0.990889   0.960633   x 
            x  O           51         0.009111   0.786889   0.960633   x 
            x  O           52         0.231333   0.666667   0.881900   x 
            x  O           53         0.000000   0.898000   0.881900   x 
            x  O           54         0.102000   0.768667   0.881900   x 
            x  O           55         0.435333   0.000000   0.645700   x 
            x  O           56         0.333333   0.102000   0.645700   x 
            x  O           57         0.564667   0.231333   0.645700   x 
            x  O           58         0.342444   0.222222   0.724433   x 
            x  O           59         0.444444   0.120222   0.724433   x 
            x  O           60         0.546444   0.324222   0.724433   x 
            x  O           61         0.453556   0.111111   0.566967   x 
            x  O           62         0.555556   0.009111   0.566967   x 
            x  O           63         0.657556   0.213111   0.566967   x 
            x  O           64         0.657556   0.111111   0.803167   x 
            x  O           65         0.555556   0.213111   0.803167   x 
            x  O           66         0.453556   0.009111   0.803167   x 
            x  O           67         0.546444   0.222222   0.960633   x 
            x  O           68         0.444444   0.324222   0.960633   x 
            x  O           69         0.342444   0.120222   0.960633   x 
            x  O           70         0.564667   0.000000   0.881900   x 
            x  O           71         0.333333   0.231333   0.881900   x 
            x  O           72         0.435333   0.102000   0.881900   x 
            x  O           73         0.435333   0.333333   0.645700   x 
            x  O           74         0.333333   0.435333   0.645700   x 
            x  O           75         0.564667   0.564667   0.645700   x 
            x  O           76         0.342444   0.555556   0.724433   x 
            x  O           77         0.444444   0.453556   0.724433   x 
            x  O           78         0.546444   0.657556   0.724433   x 
            x  O           79         0.453556   0.444444   0.566967   x 
            x  O           80         0.555556   0.342444   0.566967   x 
            x  O           81         0.657556   0.546444   0.566967   x 
            x  O           82         0.657556   0.444444   0.803167   x 
            x  O           83         0.555556   0.546444   0.803167   x 
            x  O           84         0.453556   0.342444   0.803167   x 
            x  O           85         0.546444   0.555556   0.960633   x 
            x  O           86         0.444444   0.657556   0.960633   x 
            x  O           87         0.342444   0.453556   0.960633   x 
            x  O           88         0.564667   0.333333   0.881900   x 
            x  O           89         0.333333   0.564667   0.881900   x 
            x  O           90         0.435333   0.435333   0.881900   x 
            x  O           91         0.435333   0.666667   0.645700   x 
            x  O           92         0.333333   0.768667   0.645700   x 
            x  O           93         0.564667   0.898000   0.645700   x 
            x  O           94         0.342444   0.888889   0.724433   x 
            x  O           95         0.444444   0.786889   0.724433   x 
            x  O           96         0.546444   0.990889   0.724433   x 
            x  O           97         0.453556   0.777778   0.566967   x 
            x  O           98         0.555556   0.675778   0.566967   x 
            x  O           99         0.657556   0.879778   0.566967   x 
            x  O          100         0.657556   0.777778   0.803167   x 
            x  O          101         0.555556   0.879778   0.803167   x 
            x  O          102         0.453556   0.675778   0.803167   x 
            x  O          103         0.546444   0.888889   0.960633   x 
            x  O          104         0.444444   0.990889   0.960633   x 
            x  O          105         0.342444   0.786889   0.960633   x 
            x  O          106         0.564667   0.666667   0.881900   x 
            x  O          107         0.333333   0.898000   0.881900   x 
            x  O          108         0.435333   0.768667   0.881900   x 
            x  O          109         0.768667   0.000000   0.645700   x 
            x  O          110         0.666667   0.102000   0.645700   x 
            x  O          111         0.898000   0.231333   0.645700   x 
            x  O          112         0.675778   0.222222   0.724433   x 
            x  O          113         0.777778   0.120222   0.724433   x 
            x  O          114         0.879778   0.324222   0.724433   x 
            x  O          115         0.786889   0.111111   0.566967   x 
            x  O          116         0.888889   0.009111   0.566967   x 
            x  O          117         0.990889   0.213111   0.566967   x 
            x  O          118         0.990889   0.111111   0.803167   x 
            x  O          119         0.888889   0.213111   0.803167   x 
            x  O          120         0.786889   0.009111   0.803167   x 
            x  O          121         0.879778   0.222222   0.960633   x 
            x  O          122         0.777778   0.324222   0.960633   x 
            x  O          123         0.675778   0.120222   0.960633   x 
            x  O          124         0.898000   0.000000   0.881900   x 
            x  O          125         0.666667   0.231333   0.881900   x 
            x  O          126         0.768667   0.102000   0.881900   x 
            x  O          127         0.768667   0.333333   0.645700   x 
            x  O          128         0.666667   0.435333   0.645700   x 
            x  O          129         0.898000   0.564667   0.645700   x 
            x  O          130         0.675778   0.555556   0.724433   x 
            x  O          131         0.777778   0.453556   0.724433   x 
            x  O          132         0.879778   0.657556   0.724433   x 
            x  O          133         0.786889   0.444444   0.566967   x 
            x  O          134         0.888889   0.342444   0.566967   x 
            x  O          135         0.990889   0.546444   0.566967   x 
            x  O          136         0.990889   0.444444   0.803167   x 
            x  O          137         0.888889   0.546444   0.803167   x 
            x  O          138         0.786889   0.342444   0.803167   x 
            x  O          139         0.879778   0.555556   0.960633   x 
            x  O          140         0.777778   0.657556   0.960633   x 
            x  O          141         0.675778   0.453556   0.960633   x 
            x  O          142         0.898000   0.333333   0.881900   x 
            x  O          143         0.666667   0.564667   0.881900   x 
            x  O          144         0.768667   0.435333   0.881900   x 
            x  O          145         0.768667   0.666667   0.645700   x 
            x  O          146         0.666667   0.768667   0.645700   x 
            x  O          147         0.898000   0.898000   0.645700   x 
            x  O          148         0.675778   0.888889   0.724433   x 
            x  O          149         0.777778   0.786889   0.724433   x 
            x  O          150         0.879778   0.990889   0.724433   x 
            x  O          151         0.786889   0.777778   0.566967   x 
            x  O          152         0.888889   0.675778   0.566967   x 
            x  O          153         0.990889   0.879778   0.566967   x 
            x  O          154         0.990889   0.777778   0.803167   x 
            x  O          155         0.888889   0.879778   0.803167   x 
            x  O          156         0.786889   0.675778   0.803167   x 
            x  O          157         0.879778   0.888889   0.960633   x 
            x  O          158         0.777778   0.990889   0.960633   x 
            x  O          159         0.675778   0.786889   0.960633   x 
            x  O          160         0.898000   0.666667   0.881900   x 
            x  O          161         0.666667   0.898000   0.881900   x 
            x  O          162         0.768667   0.768667   0.881900   x 
            x  Al           1         0.000000   0.000000   0.693885   x 
            x  Al           2         0.000000   0.000000   0.597515   x 
            x  Al           3         0.222222   0.111111   0.615151   x 
            x  Al           4         0.111111   0.222222   0.676249   x 
            x  Al           5         0.222222   0.111111   0.754982   x 
            x  Al           6         0.111111   0.222222   0.772618   x 
            x  Al           7         0.222222   0.111111   0.991182   x 
            x  Al           8         0.111111   0.222222   0.536418   x 
            x  Al           9         0.000000   0.000000   0.833715   x 
            x  Al          10         0.222222   0.111111   0.851351   x 
            x  Al          11         0.000000   0.000000   0.930085   x 
            x  Al          12         0.111111   0.222222   0.912449   x 
            x  Al          13         0.000000   0.333333   0.693885   x 
            x  Al          14         0.000000   0.333333   0.597515   x 
            x  Al          15         0.222222   0.444444   0.615151   x 
            x  Al          16         0.111111   0.555556   0.676249   x 
            x  Al          17         0.222222   0.444444   0.754982   x 
            x  Al          18         0.111111   0.555556   0.772618   x 
            x  Al          19         0.222222   0.444444   0.991182   x 
            x  Al          20         0.111111   0.555556   0.536418   x 
            x  Al          21         0.000000   0.333333   0.833715   x 
            x  Al          22         0.222222   0.444444   0.851351   x 
            x  Al          23         0.000000   0.333333   0.930085   x 
            x  Al          24         0.111111   0.555556   0.912449   x 
            x  Al          25         0.000000   0.666667   0.693885   x 
            x  Al          26         0.000000   0.666667   0.597515   x 
            x  Al          27         0.222222   0.777778   0.615151   x 
            x  Al          28         0.111111   0.888889   0.676249   x 
            x  Al          29         0.222222   0.777778   0.754982   x 
            x  Al          30         0.111111   0.888889   0.772618   x 
            x  Al          31         0.222222   0.777778   0.991182   x 
            x  Al          32         0.111111   0.888889   0.536418   x 
            x  Al          33         0.000000   0.666667   0.833715   x 
            x  Al          34         0.222222   0.777778   0.851351   x 
            x  Al          35         0.000000   0.666667   0.930085   x 
            x  Al          36         0.111111   0.888889   0.912449   x 
            x  Al          37         0.333333   0.000000   0.693885   x 
            x  Al          38         0.333333   0.000000   0.597515   x 
            x  Al          39         0.555556   0.111111   0.615151   x 
            x  Al          40         0.444444   0.222222   0.676249   x 
            x  Al          41         0.555556   0.111111   0.754982   x 
            x  Al          42         0.444444   0.222222   0.772618   x 
            x  Al          43         0.555556   0.111111   0.991182   x 
            x  Al          44         0.444444   0.222222   0.536418   x 
            x  Al          45         0.333333   0.000000   0.833715   x 
            x  Al          46         0.555556   0.111111   0.851351   x 
            x  Al          47         0.333333   0.000000   0.930085   x 
            x  Al          48         0.444444   0.222222   0.912449   x 
            x  Al          49         0.333333   0.333333   0.693885   x 
            x  Al          50         0.333333   0.333333   0.597515   x 
            x  Al          51         0.555556   0.444444   0.615151   x 
            x  Al          52         0.444444   0.555556   0.676249   x 
            x  Al          53         0.555556   0.444444   0.754982   x 
            x  Al          54         0.444444   0.555556   0.772618   x 
            x  Al          55         0.555556   0.444444   0.991182   x 
            x  Al          56         0.444444   0.555556   0.536418   x 
            x  Al          57         0.333333   0.333333   0.833715   x 
            x  Al          58         0.555556   0.444444   0.851351   x 
            x  Al          59         0.333333   0.333333   0.930085   x 
            x  Al          60         0.444444   0.555556   0.912449   x 
            x  Al          61         0.333333   0.666667   0.693885   x 
            x  Al          62         0.333333   0.666667   0.597515   x 
            x  Al          63         0.555556   0.777778   0.615151   x 
            x  Al          64         0.444444   0.888889   0.676249   x 
            x  Al          65         0.555556   0.777778   0.754982   x 
            x  Al          66         0.444444   0.888889   0.772618   x 
            x  Al          67         0.555556   0.777778   0.991182   x 
            x  Al          68         0.444444   0.888889   0.536418   x 
            x  Al          69         0.333333   0.666667   0.833715   x 
            x  Al          70         0.555556   0.777778   0.851351   x 
            x  Al          71         0.333333   0.666667   0.930085   x 
            x  Al          72         0.444444   0.888889   0.912449   x 
            x  Al          73         0.666667   0.000000   0.693885   x 
            x  Al          74         0.666667   0.000000   0.597515   x 
            x  Al          75         0.888889   0.111111   0.615151   x 
            x  Al          76         0.777778   0.222222   0.676249   x 
            x  Al          77         0.888889   0.111111   0.754982   x 
            x  Al          78         0.777778   0.222222   0.772618   x 
            x  Al          79         0.888889   0.111111   0.991182   x 
            x  Al          80         0.777778   0.222222   0.536418   x 
            x  Al          81         0.666667   0.000000   0.833715   x 
            x  Al          82         0.888889   0.111111   0.851351   x 
            x  Al          83         0.666667   0.000000   0.930085   x 
            x  Al          84         0.777778   0.222222   0.912449   x 
            x  Al          85         0.666667   0.333333   0.693885   x 
            x  Al          86         0.666667   0.333333   0.597515   x 
            x  Al          87         0.888889   0.444444   0.615151   x 
            x  Al          88         0.777778   0.555556   0.676249   x 
            x  Al          89         0.888889   0.444444   0.754982   x 
            x  Al          90         0.777778   0.555556   0.772618   x 
            x  Al          91         0.888889   0.444444   0.991182   x 
            x  Al          92         0.777778   0.555556   0.536418   x 
            x  Al          93         0.666667   0.333333   0.833715   x 
            x  Al          94         0.888889   0.444444   0.851351   x 
            x  Al          95         0.666667   0.333333   0.930085   x 
            x  Al          96         0.777778   0.555556   0.912449   x 
            x  Al          97         0.666667   0.666667   0.693885   x 
            x  Al          98         0.666667   0.666667   0.597515   x 
            x  Al          99         0.888889   0.777778   0.615151   x 
            x  Al         100         0.777778   0.888889   0.676249   x 
            x  Al         101         0.888889   0.777778   0.754982   x 
            x  Al         102         0.777778   0.888889   0.772618   x 
            x  Al         103         0.888889   0.777778   0.991182   x 
            x  Al         104         0.777778   0.888889   0.536418   x 
            x  Al         105         0.666667   0.666667   0.833715   x 
            x  Al         106         0.888889   0.777778   0.851351   x 
            x  Al         107         0.666667   0.666667   0.930085   x 
            x  Al         108         0.777778   0.888889   0.912449   x 
            xxxxxxxxxxxxxxxxxxxxxxxxxxxxxxxxxxxxxxxxxxxxxxxxxxxxxxxxxxxx
 
 
                         No user defined ionic velocities
 
                           -------------------------------
                                   Details of Species
                           -------------------------------
 
                               Mass of species in AMU
                                    O   15.9994000
                                    Al   26.9815400
 
                          Electric Quadrupole Moment (Barn)
                                    O   -0.0255800 Isotope 17
                                    Al    0.1466000 Isotope 27
 
                          Files used for pseudopotentials:
                                    O O_00.usp
                                    Al Al_00.usp
 
                           -------------------------------
                              k-Points For BZ Sampling
                           -------------------------------
                       MP grid size for SCF calculation is  2  2  1
                            with an offset of   0.000  0.000  0.000
                       Number of kpoints used =   2
 
                           -------------------------------
                               Symmetry and Constraints
                           -------------------------------
 
                      Cell is a supercell containing 9 primitive cells
                      Maximum deviation from symmetry =  0.00000         ANG
 
                      Number of symmetry operations   = 1
                      Number of ionic constraints     = 3
                      Point group of crystal =     1: C1, 1, 1
                      Space group of crystal =   147: P-3, -P 3
 
             Set iprint > 1 for details on symmetry rotations/translations
 
                         Centre of mass is constrained
             Set iprint > 1 for details of linear ionic constraints
 
                         Number of cell constraints= 0
                         Cell constraints are:  1 2 3 4 5 6
 
                         External pressure/stress (GPa)
                          0.00000   0.00000   0.00000
                                    0.00000   0.00000
                                              0.00000
  
+---------------- MEMORY AND SCRATCH DISK ESTIMATES PER PROCESS --------------+
|                                                     Memory          Disk    |
| Baseline code, static data and system overhead      784.0 MB         0.0 MB |
| BLAS internal memory storage                          0.0 MB         0.0 MB |
| Model and support data                              115.9 MB         0.0 MB |
| Electronic energy minimisation requirements          81.0 MB         0.0 MB |
| Force calculation requirements                        3.3 MB         0.0 MB |
|                                               ----------------------------- |
| Approx. total storage required per process          980.9 MB         0.0 MB |
|                                                                             |
| Requirements will fluctuate during execution and may exceed these estimates |
+-----------------------------------------------------------------------------+
Calculating approximate eigenstates for fixed initial Hamiltonian
Cut-off for approx. calculation is  155.625 eV
Improving approx. states at cut-off of  200.000 eV
Resetting cut-off to  400.000 eV
Calculating total energy with cut-off of  400.000 eV.
------------------------------------------------------------------------ <-- SCF
SCF loop      Energy           Fermi           Energy gain       Timer   <-- SCF
                               energy          per atom          (sec)   <-- SCF
------------------------------------------------------------------------ <-- SCF
Initial  -7.61262099E+004  0.00000000E+000                       214.07  <-- SCF
      1  -7.79035267E+004  1.71446105E+000   6.58265489E+000     238.33  <-- SCF
      2  -7.79104232E+004  1.71924334E+000   2.55423726E-002     263.34  <-- SCF
      3  -7.78188299E+004  1.84815199E+000  -3.39234216E-001     290.31  <-- SCF
      4  -7.77199042E+004  1.30434463E+000  -3.66391668E-001     318.70  <-- SCF
      5  -7.77148462E+004  1.11487673E+000  -1.87333540E-002     347.77  <-- SCF
      6  -7.77125653E+004  1.04424874E+000  -8.44757815E-003     376.85  <-- SCF
      7  -7.77102389E+004  1.02666967E+000  -8.61630382E-003     404.08  <-- SCF
      8  -7.77081458E+004  9.90605925E-001  -7.75249005E-003     432.70  <-- SCF
      9  -7.77060032E+004  1.09932095E+000  -7.93542741E-003     460.83  <-- SCF
     10  -7.77051703E+004  1.16175854E+000  -3.08482380E-003     487.42  <-- SCF
------------------------------------------------------------------------ <-- SCF
 
Final energy, E             =  -77705.17030386     eV
Final free energy (E-TS)    =  -77705.17030387     eV
(energies not corrected for finite basis set)
 
NB est. 0K energy (E-0.5TS)      =  -77705.17030386     eV
 

Writing analysis data to al3x3.castep_bin

Writing model to al3x3.check
 
 ************************** Forces **************************
 *                                                          *
 *               Cartesian components (eV/A)                *
 * -------------------------------------------------------- *
 *                         x            y            z      *
 *                                                          *
 * O               1      0.16837      0.02126      0.72227 *
 * O               2     -0.10302      0.12965      0.71830 *
 * O               3     -0.06230     -0.15236      0.72515 *
 * O               4     -0.10790      0.03204      0.30143 *
 * O               5      0.01939     -0.10962      0.30314 *
 * O               6      0.08891      0.07459      0.30208 *
 * O               7     -1.64510      1.74406     -1.02037 *
 * O               8     -0.68449     -2.29153     -1.03037 *
 * O               9      2.34530      0.55371     -1.02308 *
 * O              10      0.09015     -0.02697     -0.30873 *
 * O              11     -0.01799      0.09074     -0.31347 *
 * O              12     -0.06980     -0.06419     -0.30928 *
 * O              13      1.62745     -1.73491      0.97761 *
 * O              14      0.69577      2.28437      0.98106 *
 * O              15     -2.33642     -0.54364      0.97579 *
 * O              16     -0.17592     -0.01387     -0.67470 *
 * O              17      0.09691     -0.14425     -0.66888 *
 * O              18      0.07696      0.15438     -0.67291 *
 * O              19      0.17090      0.02228      0.72116 *
 * O              20     -0.10415      0.13112      0.71861 *
 * O              21     -0.06453     -0.15431      0.72061 *
 * O              22     -0.10639      0.03237      0.30140 *
 * O              23      0.01963     -0.10946      0.30420 *
 * O              24      0.08936      0.07441      0.30126 *
 * O              25     -1.63883      1.73700     -1.02035 *
 * O              26     -0.67438     -2.26516     -1.03721 *
 * O              27      2.32073      0.54982     -1.02585 *
 * O              28      0.09211     -0.02662     -0.30908 *
 * O              29     -0.01904      0.09153     -0.31162 *
 * O              30     -0.06986     -0.06460     -0.30891 *
 * O              31      1.62788     -1.73850      0.97974 *
 * O              32      0.69852      2.29377      0.97202 *
 * O              33     -2.34308     -0.54564      0.97047 *
 * O              34     -0.17819     -0.01339     -0.67334 *
 * O              35      0.09725     -0.14315     -0.67014 *
 * O              36      0.07798      0.15360     -0.67011 *
 * O              37      0.17040      0.02127      0.72245 *
 * O              38     -0.10172      0.13163      0.71712 *
 * O              39     -0.06262     -0.15657      0.72202 *
 * O              40     -0.10798      0.03238      0.30098 *
 * O              41      0.01879     -0.10992      0.30400 *
 * O              42      0.09068      0.07511      0.30210 *
 * O              43     -1.63300      1.72875     -1.02392 *
 * O              44     -0.67691     -2.26844     -1.03506 *
 * O              45      2.30743      0.54857     -1.03661 *
 * O              46      0.09146     -0.02553     -0.30971 *
 * O              47     -0.01772      0.09174     -0.31180 *
 * O              48     -0.07031     -0.06422     -0.30988 *
 * O              49      1.63607     -1.75046      0.96791 *
 * O              50      0.69792      2.29768      0.97105 *
 * O              51     -2.31819     -0.54284      0.98224 *
 * O              52     -0.17653     -0.01133     -0.67130 *
 * O              53      0.09633     -0.14473     -0.66895 *
 * O              54      0.07669      0.15476     -0.67039 *
 * O              55      0.16771      0.02221      0.72343 *
 * O              56     -0.10240      0.13041      0.72036 *
 * O              57     -0.06271     -0.15558      0.72037 *
 * O              58     -0.10623      0.03370      0.30236 *
 * O              59      0.01855     -0.11119      0.30425 *
 * O              60      0.08956      0.07617      0.30111 *
 * O              61     -1.63281      1.73279     -1.02832 *
 * O              62     -0.69049     -2.29866     -1.02391 *
 * O              63      2.29820      0.54529     -1.03781 *
 * O              64      0.09066     -0.02660     -0.30906 *
 * O              65     -0.01742      0.09057     -0.31286 *
 * O              66     -0.07094     -0.06348     -0.30904 *
 * O              67      1.62927     -1.73728      0.97270 *
 * O              68      0.68731      2.26393      0.98437 *
 * O              69     -2.31994     -0.53857      0.97362 *
 * O              70     -0.17790     -0.01138     -0.67482 *
 * O              71      0.09976     -0.14481     -0.66598 *
 * O              72      0.07587      0.15600     -0.67045 *
 * O              73      0.17056      0.02064      0.72399 *
 * O              74     -0.10430      0.12943      0.71978 *
 * O              75     -0.06482     -0.15495      0.72190 *
 * O              76     -0.10686      0.03220      0.30115 *
 * O              77      0.01787     -0.10986      0.30335 *
 * O              78      0.08998      0.07504      0.30116 *
 * O              79     -1.64266      1.74096     -1.02065 *
 * O              80     -0.68028     -2.27292     -1.03883 *
 * O              81      2.33289      0.55159     -1.02643 *
 * O              82      0.09113     -0.02818     -0.31034 *
 * O              83     -0.01870      0.09208     -0.31108 *
 * O              84     -0.07035     -0.06428     -0.30944 *
 * O              85      1.63626     -1.74283      0.97358 *
 * O              86      0.69290      2.27077      0.98177 *
 * O              87     -2.35145     -0.54129      0.96427 *
 * O              88     -0.18100     -0.01228     -0.67195 *
 * O              89      0.09594     -0.14369     -0.66843 *
 * O              90      0.07740      0.15411     -0.67258 *
 * O              91      0.17095      0.02121      0.72336 *
 * O              92     -0.10527      0.13208      0.71781 *
 * O              93     -0.06266     -0.15730      0.72324 *
 * O              94     -0.10828      0.03171      0.30166 *
 * O              95      0.01779     -0.11014      0.30460 *
 * O              96      0.09098      0.07536      0.30285 *
 * O              97     -1.64335      1.74731     -1.01816 *
 * O              98     -0.67186     -2.26629     -1.04135 *
 * O              99      2.31698      0.54991     -1.03232 *
 * O             100      0.09040     -0.02636     -0.30947 *
 * O             101     -0.01853      0.09106     -0.31138 *
 * O             102     -0.07033     -0.06330     -0.30906 *
 * O             103      1.64382     -1.76045      0.96172 *
 * O             104      0.69024      2.27304      0.98215 *
 * O             105     -2.31546     -0.53946      0.98175 *
 * O             106     -0.17806     -0.01157     -0.67364 *
 * O             107      0.09814     -0.14497     -0.66747 *
 * O             108      0.07684      0.15421     -0.67092 *
 * O             109      0.16936      0.02056      0.72541 *
 * O             110     -0.10304      0.13373      0.72186 *
 * O             111     -0.06324     -0.15442      0.72270 *
 * O             112     -0.10699      0.03305      0.30178 *
 * O             113      0.01926     -0.11010      0.30336 *
 * O             114      0.08872      0.07554      0.30174 *
 * O             115     -1.64864      1.74767     -1.01846 *
 * O             116     -0.67761     -2.27853     -1.03782 *
 * O             117      2.32479      0.54968     -1.02729 *
 * O             118      0.09101     -0.02706     -0.30955 *
 * O             119     -0.01788      0.09136     -0.31301 *
 * O             120     -0.06913     -0.06374     -0.30840 *
 * O             121      1.63234     -1.73819      0.97494 *
 * O             122      0.68522      2.26517      0.98365 *
 * O             123     -2.33934     -0.54619      0.96891 *
 * O             124     -0.17736     -0.01288     -0.67361 *
 * O             125      0.09913     -0.14373     -0.66895 *
 * O             126      0.07856      0.15339     -0.66946 *
 * O             127      0.16950      0.02084      0.72177 *
 * O             128     -0.10324      0.12922      0.71703 *
 * O             129     -0.06433     -0.15547      0.72315 *
 * O             130     -0.10761      0.03270      0.30287 *
 * O             131      0.01891     -0.10984      0.30356 *
 * O             132      0.08961      0.07555      0.30030 *
 * O             133     -1.63851      1.73927     -1.02522 *
 * O             134     -0.67569     -2.26939     -1.03876 *
 * O             135      2.33428      0.55319     -1.02660 *
 * O             136      0.09082     -0.02660     -0.31093 *
 * O             137     -0.01743      0.09061     -0.31287 *
 * O             138     -0.07129     -0.06459     -0.30855 *
 * O             139      1.63003     -1.73527      0.97925 *
 * O             140      0.69792      2.29437      0.97538 *
 * O             141     -2.35432     -0.54470      0.96332 *
 * O             142     -0.17718     -0.01109     -0.67077 *
 * O             143      0.09696     -0.14348     -0.67182 *
 * O             144      0.07940      0.15142     -0.67116 *
 * O             145      0.17045      0.02097      0.72440 *
 * O             146     -0.10357      0.13105      0.71740 *
 * O             147     -0.06144     -0.15504      0.71844 *
 * O             148     -0.10837      0.03334      0.30106 *
 * O             149      0.01696     -0.10948      0.30444 *
 * O             150      0.09043      0.07278      0.30204 *
 * O             151     -1.64163      1.74360     -1.01797 *
 * O             152     -0.68183     -2.28093     -1.03311 *
 * O             153      2.30056      0.54754     -1.03704 *
 * O             154      0.09102     -0.02594     -0.30853 *
 * O             155     -0.01664      0.09143     -0.31262 *
 * O             156     -0.06964     -0.06467     -0.30862 *
 * O             157      1.63259     -1.74036      0.97628 *
 * O             158      0.69541      2.29107      0.97798 *
 * O             159     -2.33397     -0.53986      0.97727 *
 * O             160     -0.17699     -0.01161     -0.67051 *
 * O             161      0.09830     -0.14443     -0.67254 *
 * O             162      0.07705      0.15335     -0.67205 *
 * Al              1      0.00030     -0.00054     -0.04558 *
 * Al              2     -0.00711     -0.00658     -0.86096 *
 * Al              3     -0.00085     -0.00388     -1.95234 *
 * Al              4      0.00064     -0.00050     -0.25329 *
 * Al              5      0.00020     -0.00081     -0.07878 *
 * Al              6      0.00074     -0.00019      0.08114 *
 * Al              7      0.00490      0.00448     -7.33359 *
 * Al              8      0.01074      0.01053      7.33376 *
 * Al              9      0.00066     -0.00042      0.05122 *
 * Al             10      0.00051     -0.00064      0.27303 *
 * Al             11     -0.00397     -0.00257      0.85790 *
 * Al             12      0.00379      0.00021      1.96590 *
 * Al             13      0.00033     -0.00080     -0.04547 *
 * Al             14     -0.00646      0.00398     -0.86034 *
 * Al             15      0.00086     -0.00702     -1.96198 *
 * Al             16      0.00062     -0.00019     -0.25313 *
 * Al             17      0.00014     -0.00063     -0.07861 *
 * Al             18      0.00076     -0.00032      0.08104 *
 * Al             19     -0.00935      0.00764     -7.33219 *
 * Al             20      0.01412      0.00378      7.33241 *
 * Al             21      0.00079     -0.00067      0.05107 *
 * Al             22      0.00048     -0.00060      0.27324 *
 * Al             23     -0.00108     -0.00796      0.85796 *
 * Al             24      0.00542     -0.00040      1.96346 *
 * Al             25      0.00044     -0.00077     -0.04550 *
 * Al             26     -0.00106      0.00678     -0.85753 *
 * Al             27      0.00269     -0.00357     -1.96456 *
 * Al             28      0.00076     -0.00030     -0.25290 *
 * Al             29      0.00031     -0.00070     -0.07877 *
 * Al             30      0.00075     -0.00021      0.08093 *
 * Al             31      0.00685     -0.00406     -7.33342 *
 * Al             32     -0.00690      0.00244      7.33405 *
 * Al             33      0.00068     -0.00057      0.05084 *
 * Al             34      0.00053     -0.00069      0.27302 *
 * Al             35     -0.00355      0.00079      0.86146 *
 * Al             36     -0.00159     -0.00188      1.96394 *
 * Al             37      0.00038     -0.00070     -0.04544 *
 * Al             38      0.00245     -0.00400     -0.86081 *
 * Al             39      0.00279      0.00358     -1.96082 *
 * Al             40      0.00057     -0.00035     -0.25336 *
 * Al             41      0.00032     -0.00069     -0.07873 *
 * Al             42      0.00071     -0.00039      0.08098 *
 * Al             43     -0.01057      0.00178     -7.33348 *
 * Al             44      0.01527     -0.00251      7.33272 *
 * Al             45      0.00060     -0.00045      0.05100 *
 * Al             46      0.00055     -0.00066      0.27299 *
 * Al             47      0.00669     -0.00092      0.86161 *
 * Al             48      0.00082      0.00356      1.97177 *
 * Al             49      0.00045     -0.00067     -0.04568 *
 * Al             50     -0.00978      0.01121     -0.85692 *
 * Al             51      0.00097     -0.00632     -1.95782 *
 * Al             52      0.00060     -0.00032     -0.25316 *
 * Al             53      0.00023     -0.00070     -0.07881 *
 * Al             54      0.00079     -0.00031      0.08098 *
 * Al             55     -0.01849     -0.00037     -7.33276 *
 * Al             56      0.01097      0.01056      7.33346 *
 * Al             57      0.00043     -0.00050      0.05114 *
 * Al             58      0.00051     -0.00046      0.27310 *
 * Al             59      0.00350     -0.01509      0.86094 *
 * Al             60      0.00491      0.00626      1.96484 *
 * Al             61      0.00055     -0.00063     -0.04555 *
 * Al             62     -0.00980      0.00291     -0.85869 *
 * Al             63      0.00389     -0.00706     -1.96128 *
 * Al             64      0.00057     -0.00029     -0.25306 *
 * Al             65      0.00019     -0.00064     -0.07880 *
 * Al             66      0.00060     -0.00046      0.08094 *
 * Al             67     -0.00827     -0.01079     -7.33293 *
 * Al             68     -0.00752      0.00552      7.33145 *
 * Al             69      0.00066     -0.00058      0.05089 *
 * Al             70      0.00060     -0.00062      0.27326 *
 * Al             71      0.00327     -0.00171      0.86580 *
 * Al             72     -0.00479      0.00310      1.96707 *
 * Al             73      0.00046     -0.00049     -0.04571 *
 * Al             74     -0.00329     -0.00682     -0.85381 *
 * Al             75      0.00409     -0.00542     -1.95619 *
 * Al             76      0.00052     -0.00062     -0.25321 *
 * Al             77      0.00036     -0.00072     -0.07877 *
 * Al             78      0.00069     -0.00035      0.08104 *
 * Al             79     -0.00223      0.00379     -7.33326 *
 * Al             80      0.00002      0.01674      7.33391 *
 * Al             81      0.00061     -0.00059      0.05125 *
 * Al             82      0.00059     -0.00063      0.27339 *
 * Al             83      0.00556     -0.00329      0.85449 *
 * Al             84      0.00409      0.00604      1.96833 *
 * Al             85      0.00041     -0.00058     -0.04544 *
 * Al             86     -0.00588     -0.00370     -0.86281 *
 * Al             87     -0.00126     -0.00661     -1.95896 *
 * Al             88      0.00065     -0.00024     -0.25321 *
 * Al             89      0.00019     -0.00073     -0.07878 *
 * Al             90      0.00076     -0.00042      0.08101 *
 * Al             91     -0.01525      0.00041     -7.33484 *
 * Al             92      0.00790      0.00168      7.33218 *
 * Al             93      0.00063     -0.00039      0.05094 *
 * Al             94      0.00059     -0.00059      0.27294 *
 * Al             95      0.00501     -0.01710      0.86042 *
 * Al             96      0.00712      0.00138      1.96174 *
 * Al             97      0.00062     -0.00060     -0.04557 *
 * Al             98     -0.00998      0.00674     -0.85926 *
 * Al             99      0.00554     -0.00161     -1.96161 *
 * Al            100      0.00070     -0.00034     -0.25308 *
 * Al            101      0.00017     -0.00069     -0.07886 *
 * Al            102      0.00067     -0.00042      0.08083 *
 * Al            103      0.00363      0.00183     -7.33453 *
 * Al            104      0.00311      0.00744      7.33305 *
 * Al            105      0.00046     -0.00046      0.05115 *
 * Al            106      0.00047     -0.00056      0.27311 *
 * Al            107     -0.00088     -0.00298      0.85800 *
 * Al            108      0.00287      0.00017      1.96473 *
 *                                                          *
 ************************************************************

Writing analysis data to al3x3.castep_bin

Writing model to al3x3.check
 
 A BibTeX formatted list of references used in this run has been written to 
 al3x3.bib
 
Initialisation time =      3.26 s
Calculation time    =    508.33 s
Finalisation time   =      6.08 s
Total time          =    517.66 s
Peak Memory Use     = 1639364 kB
  
Overall parallel efficiency rating: Good (75%)                                  
  
Data was distributed by:-
G-vector (64-way); efficiency rating: Good (76%)                                
k-point (2-way); efficiency rating: Excellent (99%)                             
  
Parallel notes:
1) Calculation only took 511.6 s, so efficiency estimates may be inaccurate.    
