 vasp.5.4.4.18Apr17-6-g9f103f2a35 (build Nov 14 2020 21:33:54) complex           
 executed on        HPECrayEX-GNU date 2020.11.15  19:57:41
 running on  512 total cores
 distrk:  each k-point on  256 cores,    2 groups
 distr:  one band on NCORES_PER_BAND=   8 cores,   32 groups


--------------------------------------------------------------------------------------------------------


 INCAR:
 POTCAR:    PAW_PBE Cd 06Sep2000                  
 POTCAR:    PAW_PBE Te 08Apr2002                  

 ----------------------------------------------------------------------------- 
|                                                                             |
|           W    W    AA    RRRRR   N    N  II  N    N   GGGG   !!!           |
|           W    W   A  A   R    R  NN   N  II  NN   N  G    G  !!!           |
|           W    W  A    A  R    R  N N  N  II  N N  N  G       !!!           |
|           W WW W  AAAAAA  RRRRR   N  N N  II  N  N N  G  GGG   !            |
|           WW  WW  A    A  R   R   N   NN  II  N   NN  G    G                |
|           W    W  A    A  R    R  N    N  II  N    N   GGGG   !!!           |
|                                                                             |
|      For optimal performance we recommend to set                            |
|        NCORE= 4 - approx SQRT( number of cores)                             |
|      NCORE specifies how many cores store one orbital (NPAR=cpu/NCORE).     |
|      This setting can  greatly improve the performance of VASP for DFT.     |
|      The default,   NCORE=1            might be grossly inefficient         |
|      on modern multi-core architectures or massively parallel machines.     |
|      Do your own testing !!!!                                               |
|      Unfortunately you need to use the default for GW and RPA calculations. |
|      (for HF NCORE is supported but not extensively tested yet)             |
|                                                                             |
 ----------------------------------------------------------------------------- 


 ----------------------------------------------------------------------------- 
|                                                                             |
|           W    W    AA    RRRRR   N    N  II  N    N   GGGG   !!!           |
|           W    W   A  A   R    R  NN   N  II  NN   N  G    G  !!!           |
|           W    W  A    A  R    R  N N  N  II  N N  N  G       !!!           |
|           W WW W  AAAAAA  RRRRR   N  N N  II  N  N N  G  GGG   !            |
|           WW  WW  A    A  R   R   N   NN  II  N   NN  G    G                |
|           W    W  A    A  R    R  N    N  II  N    N   GGGG   !!!           |
|                                                                             |
|      You have enabled k-point parallelism (KPAR>1).                         |
|      This developmental code was originally  written by Paul Kent at ORNL,  |
|      and carefully double checked in Vienna.                                |
|      GW as well as linear response parallelism added by Martijn Marsman     |
|      and Georg Kresse.                                                      |
|      Carefully verify results versus KPAR=1.                                |
|      Report problems to Paul Kent and Vienna.                               |
|                                                                             |
 ----------------------------------------------------------------------------- 

 POTCAR:    PAW_PBE Cd 06Sep2000                  
   VRHFIN =Cd : s2 d10                                                          
   LEXCH  = PE                                                                  
   EATOM  =  1293.1815 eV,   95.0462 Ry                                         
                                                                                
   TITEL  = PAW_PBE Cd 06Sep2000                                                
   LULTRA =        F    use ultrasoft PP ?                                      
   IUNSCR =        1    unscreen: 0-lin 1-nonlin 2-no                           
   RPACOR =    2.000    partial core radius                                     
   POMASS =  112.411; ZVAL   =   12.000    mass and valenz                      
   RCORE  =    2.300    outmost cutoff radius                                   
   RWIGS  =    2.980; RWIGS  =    1.577    wigner-seitz radius (au A)           
   ENMAX  =  274.336; ENMIN  =  205.752 eV                                      
   RCLOC  =    2.054    cutoff for local pot                                    
   LCOR   =        T    correct aug charges                                     
   LPAW   =        T    paw PP                                                  
   EAUG   =  456.106                                                            
   DEXC   =    0.000                                                            
   RMAX   =    2.358    core radius for proj-oper                               
   RAUG   =    1.300    factor for augmentation sphere                          
   RDEP   =    2.450    radius for radial grids                                 
   RDEPT  =    1.955    core radius for aug-charge                              
                                                                                
   Atomic configuration                                                         
   12 entries                                                                   
     n  l   j            E        occ.                                          
     1  0  0.50    -26519.7817   2.0000                                         
     2  0  0.50     -3936.9612   2.0000                                         
     2  1  1.50     -3532.2230   6.0000                                         
     3  0  0.50      -733.7908   2.0000                                         
     3  1  1.50      -601.0792   6.0000                                         
     3  2  2.50      -393.5307  10.0000                                         
     4  0  0.50      -105.8977   2.0000                                         
     4  1  1.50       -66.9488   6.0000                                         
     4  2  2.50       -11.7331  10.0000                                         
     5  0  0.50        -5.6592   2.0000                                         
     5  1  0.50        -1.3606   0.0000                                         
     4  3  2.50        -1.3606   0.0000                                         
   Description                                                                  
     l       E           TYP  RCUT    TYP  RCUT                                 
     2    -11.7331479     23  2.300                                             
     2    -13.0937305     23  2.300                                             
     0     -5.6591502     23  2.300                                             
     0     -1.5561433     23  2.300                                             
     1     -2.7211652     23  2.300                                             
     1      8.3548275     23  2.300                                             
  local pseudopotential read in
  partial core-charges read in
  partial kinetic energy density read in
  atomic valenz-charges read in
  non local Contribution for L=           2  read in
    real space projection operators read in
  non local Contribution for L=           2  read in
    real space projection operators read in
  non local Contribution for L=           0  read in
    real space projection operators read in
  non local Contribution for L=           0  read in
    real space projection operators read in
  non local Contribution for L=           1  read in
    real space projection operators read in
  non local Contribution for L=           1  read in
    real space projection operators read in
    PAW grid and wavefunctions read in

   number of l-projection  operators is LMAX  =           6
   number of lm-projection operators is LMMAX =          18

 POTCAR:    PAW_PBE Te 08Apr2002                  
   VRHFIN =Te: s2p4                                                             
   LEXCH  = PE                                                                  
   EATOM  =   223.2721 eV,   16.4100 Ry                                         
                                                                                
   TITEL  = PAW_PBE Te 08Apr2002                                                
   LULTRA =        F    use ultrasoft PP ?                                      
   IUNSCR =        1    unscreen: 0-lin 1-nonlin 2-no                           
   RPACOR =    2.200    partial core radius                                     
   POMASS =  127.600; ZVAL   =    6.000    mass and valenz                      
   RCORE  =    2.300    outmost cutoff radius                                   
   RWIGS  =    2.900; RWIGS  =    1.535    wigner-seitz radius (au A)           
   ENMAX  =  174.982; ENMIN  =  131.236 eV                                      
   ICORE  =        3    local potential                                         
   LCOR   =        T    correct aug charges                                     
   LPAW   =        T    paw PP                                                  
   EAUG   =  368.792                                                            
   DEXC   =    0.000                                                            
   RMAX   =    2.345    core radius for proj-oper                               
   RAUG   =    1.300    factor for augmentation sphere                          
   RDEP   =    2.397    radius for radial grids                                 
   RDEPT  =    2.174    core radius for aug-charge                              
                                                                                
   Atomic configuration                                                         
   13 entries                                                                   
     n  l   j            E        occ.                                          
     1  0  0.50    -31621.2075   2.0000                                         
     2  0  0.50     -4848.7941   2.0000                                         
     2  1  1.50     -4352.1960   6.0000                                         
     3  0  0.50      -964.9612   2.0000                                         
     3  1  1.50      -803.6179   6.0000                                         
     3  2  2.50      -559.8710  10.0000                                         
     4  0  0.50      -164.3522   2.0000                                         
     4  1  1.50      -114.3756   6.0000                                         
     4  2  2.50       -41.6483  10.0000                                         
     5  0  0.50       -15.1072   2.0000                                         
     5  1  0.50        -5.9526   4.0000                                         
     5  2  1.50        -5.4423   0.0000                                         
     4  3  2.50        -5.4423   0.0000                                         
   Description                                                                  
     l       E           TYP  RCUT    TYP  RCUT                                 
     0    -15.1072389     23  2.300                                             
     0    -16.4678215     23  2.300                                             
     1     -5.9526306     23  2.300                                             
     1     -2.4873968     23  2.300                                             
     2     -5.4423304     23  2.300                                             
     3     -1.3605826     23  2.300                                             
  local pseudopotential read in
  partial core-charges read in
  partial kinetic energy density read in
  atomic valenz-charges read in
  non local Contribution for L=           0  read in
    real space projection operators read in
  non local Contribution for L=           0  read in
    real space projection operators read in
  non local Contribution for L=           1  read in
    real space projection operators read in
  non local Contribution for L=           1  read in
    real space projection operators read in
  non local Contribution for L=           2  read in
    real space projection operators read in
    PAW grid and wavefunctions read in

   number of l-projection  operators is LMAX  =           5
   number of lm-projection operators is LMMAX =          13


 ----------------------------------------------------------------------------- 
|                                                                             |
|  ADVICE TO THIS USER RUNNING 'VASP/VAMP'   (HEAR YOUR MASTER'S VOICE ...):  |
|                                                                             |
|      You have a (more or less) 'large supercell' and for larger cells       |
|      it might be more efficient to use real space projection opertators     |
|      So try LREAL= Auto  in the INCAR   file.                               |
|      Mind:          For very  accurate calculation you might also keep the  |
|      reciprocal projection scheme          (i.e. LREAL=.FALSE.)             |
|                                                                             |
 ----------------------------------------------------------------------------- 

  PAW_PBE Cd 06Sep2000                  :
 energy of atom  1       EATOM=-1293.1815
 kinetic energy error for atom=    0.0084 (will be added to EATOM!!)
  PAW_PBE Te 08Apr2002                  :
 energy of atom  2       EATOM= -223.2721
 kinetic energy error for atom=    0.0008 (will be added to EATOM!!)


 POSCAR: Cd33 Te32                               
  positions in direct lattice
  No initial velocities read in
 exchange correlation table for  LEXCH =        8
   RHO(1)=    0.500       N(1)  =     2000
   RHO(2)=  100.500       N(2)  =     4000



--------------------------------------------------------------------------------------------------------


 ion  position               nearest neighbor table
   1  0.004  0.996  0.004-  44 2.79  35 2.93  54 2.93  65 2.93  33 2.94
   2  0.001  0.999  0.497-  55 2.82  34 2.82  64 2.82  45 2.84
   3  0.001  0.503  0.001-  63 2.82  56 2.82  37 2.82  42 2.84
   4  1.000  0.501  0.499-  57 2.82  62 2.82  36 2.82  43 2.84
   5  0.497  0.999  0.001-  39 2.82  50 2.82  61 2.82  48 2.84
   6  0.499  0.000  0.499-  38 2.82  51 2.82  60 2.82  49 2.84
   7  0.499  0.501  1.000-  41 2.82  59 2.82  52 2.82  46 2.84
   8  0.501  0.499  0.501-  47 2.82  40 2.83  53 2.83  58 2.83
   9  0.001  0.251  0.253-  54 2.82  34 2.82  62 2.82  42 2.84
  10  0.004  0.254  0.746-  43 2.79  35 2.93  55 2.93  63 2.93  33 2.94
  11  1.000  0.749  0.251-  56 2.82  64 2.82  36 2.82  44 2.84
  12  0.001  0.747  0.749-  65 2.82  57 2.82  37 2.82  45 2.84
  13  0.499  0.250  0.251-  38 2.82  50 2.82  58 2.82  46 2.84
  14  0.497  0.251  0.749-  39 2.82  51 2.82  59 2.82  47 2.84
  15  0.501  0.751  0.249-  48 2.82  40 2.83  52 2.83  60 2.83
  16  0.499  0.749  0.750-  41 2.82  61 2.82  53 2.82  49 2.84
  17  0.251  0.000  0.251-  34 2.82  50 2.82  60 2.82  44 2.84
  18  0.253  0.999  0.749-  35 2.82  51 2.82  61 2.82  45 2.84
  19  0.249  0.499  0.249-  42 2.82  36 2.83  52 2.83  58 2.83
  20  0.251  0.501  0.750-  37 2.82  59 2.82  53 2.82  43 2.84
  21  0.749  0.999  0.253-  54 2.82  38 2.82  64 2.82  48 2.84
  22  0.746  0.996  0.746-  49 2.79  39 2.93  55 2.93  65 2.93  33 2.94
  23  0.750  0.501  0.251-  56 2.82  62 2.82  40 2.82  46 2.84
  24  0.749  0.503  0.749-  63 2.82  57 2.82  41 2.82  47 2.84
  25  0.253  0.251  0.001-  35 2.82  50 2.82  59 2.82  42 2.84
  26  0.251  0.250  0.499-  34 2.82  51 2.82  58 2.82  43 2.84
  27  0.251  0.749  1.000-  37 2.82  61 2.82  52 2.82  44 2.84
  28  0.249  0.751  0.501-  45 2.82  36 2.83  53 2.83  60 2.83
  29  0.746  0.254  0.004-  46 2.79  39 2.93  54 2.93  63 2.93  33 2.94
  30  0.749  0.251  0.497-  55 2.82  38 2.82  62 2.82  47 2.84
  31  0.749  0.747  0.001-  65 2.82  56 2.82  41 2.82  48 2.84
  32  0.750  0.749  0.499-  57 2.82  64 2.82  40 2.82  49 2.84
  33  0.875  0.125  0.875-   1 2.94  10 2.94  22 2.94  29 2.94  35 3.37  39 3.37  54 3.37  55 3.37
                            63 3.37  65 3.37
  34  0.127  0.125  0.375-  17 2.82  26 2.82   2 2.82   9 2.82
  35  0.133  0.125  0.875-  18 2.82  25 2.82  10 2.93   1 2.93  33 3.37
  36  0.126  0.625  0.375-   4 2.82  11 2.82  19 2.83  28 2.83
  37  0.127  0.625  0.875-  20 2.82  27 2.82   3 2.82  12 2.82
  38  0.623  0.125  0.375-  13 2.82   6 2.82  21 2.82  30 2.82
  39  0.617  0.125  0.875-  14 2.82   5 2.82  22 2.93  29 2.93  33 3.37
  40  0.624  0.625  0.375-  23 2.82  32 2.82   8 2.83  15 2.83
  41  0.623  0.625  0.875-   7 2.82  16 2.82  31 2.82  24 2.82
  42  0.125  0.375  0.125-  19 2.82   9 2.84  25 2.84   3 2.84
  43  0.127  0.377  0.623-  10 2.79   4 2.84  26 2.84  20 2.84
  44  0.127  0.873  0.127-   1 2.79  11 2.84  17 2.84  27 2.84
  45  0.125  0.875  0.625-  28 2.82  18 2.84   2 2.84  12 2.84
  46  0.623  0.377  0.127-  29 2.79  13 2.84  23 2.84   7 2.84
  47  0.625  0.375  0.625-   8 2.82  14 2.84  24 2.84  30 2.84
  48  0.625  0.875  0.125-  15 2.82  21 2.84   5 2.84  31 2.84
  49  0.623  0.873  0.623-  22 2.79  32 2.84   6 2.84  16 2.84
  50  0.375  0.125  0.127-  17 2.82  13 2.82   5 2.82  25 2.82
  51  0.375  0.125  0.623-   6 2.82  26 2.82  18 2.82  14 2.82
  52  0.375  0.625  0.126-   7 2.82  27 2.82  19 2.83  15 2.83
  53  0.375  0.625  0.624-  16 2.82  20 2.82   8 2.83  28 2.83
  54  0.875  0.125  0.133-   9 2.82  21 2.82   1 2.93  29 2.93  33 3.37
  55  0.875  0.125  0.617-  30 2.82   2 2.82  22 2.93  10 2.93  33 3.37
  56  0.875  0.625  0.127-  11 2.82  23 2.82   3 2.82  31 2.82
  57  0.875  0.625  0.623-   4 2.82  32 2.82  12 2.82  24 2.82
  58  0.375  0.376  0.375-  26 2.82  13 2.82  19 2.83   8 2.83
  59  0.375  0.377  0.875-   7 2.82  20 2.82  14 2.82  25 2.82
  60  0.375  0.874  0.375-   6 2.82  17 2.82  15 2.83  28 2.83
  61  0.375  0.873  0.875-  16 2.82  27 2.82   5 2.82  18 2.82
  62  0.875  0.377  0.375-   4 2.82  23 2.82   9 2.82  30 2.82
  63  0.875  0.383  0.875-  24 2.82   3 2.82  10 2.93  29 2.93  33 3.37
  64  0.875  0.873  0.375-  11 2.82  32 2.82   2 2.82  21 2.82
  65  0.875  0.867  0.875-  12 2.82  31 2.82   1 2.93  22 2.93  33 3.37


IMPORTANT INFORMATION: All symmetrisations will be switched off!
NOSYMM: (Re-)initialisation of all symmetry stuff for point group C_1.



 KPOINTS: Automatically generated mesh            
  k-points in reciprocal lattice
Space group operators:
 irot       det(A)        alpha          n_x          n_y          n_z        tau_x        tau_y        tau_z
    1     1.000000     0.000000     1.000000     0.000000     0.000000     0.000000     0.000000     0.000000

 ----------------------------------------------------------------------------- 
|                                                                             |
|           W    W    AA    RRRRR   N    N  II  N    N   GGGG   !!!           |
|           W    W   A  A   R    R  NN   N  II  NN   N  G    G  !!!           |
|           W    W  A    A  R    R  N N  N  II  N N  N  G       !!!           |
|           W WW W  AAAAAA  RRRRR   N  N N  II  N  N N  G  GGG   !            |
|           WW  WW  A    A  R   R   N   NN  II  N   NN  G    G                |
|           W    W  A    A  R    R  N    N  II  N    N   GGGG   !!!           |
|                                                                             |
|      Your generating k-point grid is not commensurate to the symmetry       |
|      of the lattice.  This can cause   slow convergence with respect        |
|      to k-points for HF type calculations                                   |
|      suggested SOLUTIONS:                                                   |
|       ) if not already the case, use automatic k-point generation           |
|       ) shift your grid to Gamma (G) (e.g. required for hex or fcc lattice) |
|                                                                             |
 ----------------------------------------------------------------------------- 

 
 Subroutine IBZKPT_HF returns following result:
 ==============================================
 
 Found      8 k-points in 1st BZ
 the following      8 k-points will be used (e.g. in the exchange kernel)
 Following reciprocal coordinates:   # in IRBZ
  0.000000  0.000000  0.000000    0.12500000   1 t-inv F
  0.500000  0.000000  0.000000    0.12500000   2 t-inv F
  0.000000  0.500000  0.000000    0.12500000   3 t-inv F
  0.500000  0.500000  0.000000    0.12500000   4 t-inv F
  0.000000  0.000000  0.500000    0.12500000   5 t-inv F
  0.500000  0.000000  0.500000    0.12500000   6 t-inv F
  0.000000  0.500000  0.500000    0.12500000   7 t-inv F
  0.500000  0.500000  0.500000    0.12500000   8 t-inv F


--------------------------------------------------------------------------------------------------------




 Dimension of arrays:
   k-points           NKPTS =      8   k-points in BZ     NKDIM =      8   number of bands    NBANDS=    800
   number of dos      NEDOS =   2000   number of ions     NIONS =     65
   non local maximal  LDIM  =      6   non local SUM 2l+1 LMDIM =     18
   total plane-waves  NPLWV = 884736
   max r-space proj   IRMAX =      1   max aug-charges    IRDMAX= 183854
   dimension x,y,z NGX =    96 NGY =   96 NGZ =   96
   dimension x,y,z NGXF=   192 NGYF=  192 NGZF=  192
   support grid    NGXF=   384 NGYF=  384 NGZF=  384
   ions per type =              33  32
   NGX,Y,Z   is equivalent  to a cutoff of  12.20, 12.20, 12.20 a.u.
   NGXF,Y,Z  is equivalent  to a cutoff of  24.39, 24.39, 24.39 a.u.

 SYSTEM =  unknown system                          
 POSCAR =  Cd33 Te32                               

 Startparameter for this run:
   NWRITE =      2    write-flag & timer
   PREC   = accura    normal or accurate (medium, high low for compatibility)
   ISTART =      0    job   : 0-new  1-cont  2-samecut
   ICHARG =      1    charge: 1-file 2-atom 10-const
   ISPIN  =      1    spin polarized calculation?
   LNONCOLLINEAR =      T non collinear calculations
   LSORBIT =      T    spin-orbit coupling
   INIWAV =      1    electr: 0-lowe 1-rand  2-diag
   LASPH  =      T    aspherical Exc in radial PAW
   METAGGA=      F    non-selfconsistent MetaGGA calc.

 Electronic Relaxation 1
   ENCUT  =  450.0 eV  33.07 Ry    5.75 a.u.  22.64 22.64 22.64*2*pi/ulx,y,z
   ENINI  =  450.0     initial cutoff
   ENAUG  =  456.1 eV  augmentation charge cutoff
   NELM   =      6;   NELMIN=  2; NELMDL= -5     # of ELM steps 
   EDIFF  = 0.1E-05   stopping-criterion for ELM
   LREAL  =      F    real-space projection
   NLSPLINE    = F    spline interpolate recip. space projectors
   LCOMPAT=      F    compatible to vasp.4.4
   GGA_COMPAT  = T    GGA compatible to vasp.4.4-vasp.4.6
   LMAXPAW     = -100 max onsite density
   LMAXMIX     =    2 max onsite mixed and CHGCAR
   VOSKOWN=      0    Vosko Wilk Nusair interpolation
   ROPT   =    0.00000   0.00000
 Ionic relaxation
   EDIFFG = -.1E-01   stopping-criterion for IOM
   NSW    =      0    number of steps for IOM
   NBLOCK =      1;   KBLOCK =      1    inner block; outer block 
   IBRION =     -1    ionic relax: 0-MD 1-quasi-New 2-CG
   NFREE  =      0    steps in history (QN), initial steepest desc. (CG)
   ISIF   =      2    stress and relaxation
   IWAVPR =     10    prediction:  0-non 1-charg 2-wave 3-comb
   ISYM   =      0    0-nonsym 1-usesym 2-fastsym
   LCORR  =      T    Harris-Foulkes like correction to forces

   POTIM  = 0.5000    time-step for ionic-motion
   TEIN   =    0.0    initial temperature
   TEBEG  =    0.0;   TEEND  =   0.0 temperature during run
   SMASS  =  -3.00    Nose mass-parameter (am)
   estimated Nose-frequenzy (Omega)   =  0.10E-29 period in steps =****** mass=  -0.391E-26a.u.
   SCALEE = 1.0000    scale energy and forces
   NPACO  =    256;   APACO  = 16.0  distance and # of slots for P.C.
   PSTRESS=    0.0 pullay stress

  Mass of Ions in am
   POMASS = 112.41127.60
  Ionic Valenz
   ZVAL   =  12.00  6.00
  Atomic Wigner-Seitz radii
   RWIGS  =  -1.00 -1.00
  virtual crystal weights 
   VCA    =   1.00  1.00
   NELECT =     588.0000    total number of electrons
   NUPDOWN=      -1.0000    fix difference up-down

 DOS related values:
   EMIN   =  10.00;   EMAX   =-10.00  energy-range for DOS
   EFERMI =   0.00
   ISMEAR =     0;   SIGMA  =   0.05  broadening in eV -4-tet -1-fermi 0-gaus

 Electronic relaxation 2 (details)
   IALGO  =     58    algorithm
   LDIAG  =      T    sub-space diagonalisation (order eigenvalues)
   LSUBROT=      F    optimize rotation matrix (better conditioning)
   TURBO    =      0    0=normal 1=particle mesh
   IRESTART =      0    0=no restart 2=restart with 2 vectors
   NREBOOT  =      0    no. of reboots
   NMIN     =      0    reboot dimension
   EREF     =   0.00    reference energy to select bands
   IMIX   =      4    mixing-type and parameters
     AMIX     =   0.40;   BMIX     =  1.00
     AMIX_MAG =   1.60;   BMIX_MAG =  1.00
     AMIN     =   0.10
     WC   =   100.;   INIMIX=   1;  MIXPRE=   1;  MAXMIX= -45

 Intra band minimization:
   WEIMIN = 0.0000     energy-eigenvalue tresh-hold
   EBREAK =  0.31E-09  absolut break condition
   DEPER  =   0.30     relativ break condition  

   TIME   =   0.40     timestep for ELM

  volume/ion in A,a.u.               =      34.48       232.69
  Fermi-wavevector in a.u.,A,eV,Ry     =   1.048017  1.980464 14.943809  1.098339
  Thomas-Fermi vector in A             =   2.182921

 Write flags
   LWAVE        =      T    write WAVECAR
   LDOWNSAMPLE  =      F    k-point downsampling of WAVECAR
   LCHARG       =      T    write CHGCAR
   LVTOT        =      F    write LOCPOT, total local potential
   LVHAR        =      T    write LOCPOT, Hartree potential only
   LELF         =      F    write electronic localiz. function (ELF)
   LORBIT       =     11    0 simple, 1 ext, 2 COOP (PROOUT), +10 PAW based schemes


 Dipole corrections
   LMONO  =      F    monopole corrections only (constant potential shift)
   LDIPOL =      F    correct potential (dipole corrections)
   IDIPOL =      0    1-x, 2-y, 3-z, 4-all directions 
   EPSILON=  1.0000000 bulk dielectric constant

 Exchange correlation treatment:
   GGA     =    --    GGA type
   LEXCH   =     8    internal setting for exchange type
   VOSKOWN=      0    Vosko Wilk Nusair interpolation
   EXXOEP  =     0    0=HF, 1=EXX-LHF (local Hartree Fock) 2=EXX OEP
   LHFCALC =     T    Hartree Fock is set to
   LSYMGRAD=     F    symmetrize gradient (conserves proper symmetry)
   PRECFOCK=fast      Normal, Fast or Accurate (Low or Medium for compatibility)
   LRHFCALC=     F    long range Hartree Fock
   LRSCOR  =     F    long range correlation only (use DFT for short range part)
   LTHOMAS =     F    Thomas Fermi screening in HF
   LMODELHF=     F    short range full HF, long range fraction AEXX
   ENCUT4O =  -1.0   cutoff for four orbital integrals eV
   LMAXFOCK=     4    L truncation for augmentation on plane wave grid
   LMAXFOCKAE=  -1    L truncation for all-electron charge restoration on plane wave grid
   NMAXFOCKAE=   1    number of basis functions for all-electron charge restoration
   LFOCKAEDFT=     F  apply the AE augmentation even for DFT
   NKREDX  =     1    reduce k-point grid by
   NKREDY  =     1    reduce k-point grid by
   NKREDZ  =     1    reduce k-point grid by
   SHIFTRED=     F    shift reduced grid of Gamma
   HFKIDENT=     F    idential grid for each k-point
   ODDONLY =     F    use only odd q-grid points
   EVENONLY=     F    use only even q-grid points
   HFALPHA =   -1.0000 decay constant for conv. correction
   MCALPHA =    0.0000 extent of test-charge in conv. correction in multipole expansion
   AEXX    =    0.2500 exact exchange contribution
   HFSCREEN=    0.2000 screening length (either q_TF or 0.3 A-1)
   HFSCREENC=   0.2000 screening length for correlation (either q_TF or 0.3 A-1)
   HFRCUT  =    0.0000 spherical cutoff for potential kernel
   ALDAX   =    0.7500 LDA exchange part
   AGGAX   =    0.7500 GGA exchange part
   ALDAC   =    1.0000 LDA correlation
   AGGAC   =    1.0000 GGA correlation
   ENCUTFOCK=  -1.0 apply spherical cutoff to Coloumb kernel
   NBANDSGWLOW=     1    first orbital included in HF term
   NBLOCK_FOCK=    64    blocking factor in FOCK_ACC
 Linear response parameters
   LEPSILON=     F    determine dielectric tensor
   LRPA    =     F    only Hartree local field effects (RPA)
   LNABLA  =     F    use nabla operator in PAW spheres
   LVEL    =     F    velocity operator in full k-point grid
   LINTERFAST=   F  fast interpolation
   KINTER  =     0    interpolate to denser k-point grid
   CSHIFT  =0.1000    complex shift for real part using Kramers Kronig
   OMEGAMAX=  -1.0    maximum frequency
   DEG_THRESHOLD= 0.2000000E-02 threshold for treating states as degnerate
   RTIME   =   -0.100 relaxation time in fs
  (WPLASMAI=    0.000 imaginary part of plasma frequency in eV, 0.658/RTIME)
   DFIELD  = 0.0000000 0.0000000 0.0000000 field for delta impulse in time

 Orbital magnetization related:
   ORBITALMAG=     F  switch on orbital magnetization
   LCHIMAG   =     F  perturbation theory with respect to B field
   DQ        =  0.001000  dq finite difference perturbation B field
   LLRAUG    =     F  two centre corrections for induced B field



--------------------------------------------------------------------------------------------------------


 Static calculation
 charge density and potential will be updated during run
 non collinear spin polarized calculation
 Conjugate gradient for all bands (Freysoldt, et al. PRB 79, 241103 (2009))
 preconditioned conjugated gradient                                        
 perform sub-space diagonalisation
    before iterative eigenvector-optimisation
 modified Broyden-mixing scheme, WC =      100.0
 initial mixing is a Kerker type mixing with AMIX =  0.4000 and BMIX =      1.0000
 Hartree-type preconditioning will be used
 using additional bands          506
 reciprocal scheme for non local part
 use partial core corrections
 no Harris-corrections to forces 
 use gradient corrections 
 use of overlap-Matrix (Vanderbilt PP)
 Gauss-broadening in eV      SIGMA  =   0.05


--------------------------------------------------------------------------------------------------------


  energy-cutoff  :      450.00
  volume of cell :     2241.29
      direct lattice vectors                 reciprocal lattice vectors
    13.086768000  0.000000000  0.000000000     0.076413061  0.000000000  0.000000000
     0.000000000 13.086768000  0.000000000     0.000000000  0.076413061  0.000000000
     0.000000000  0.000000000 13.086768000     0.000000000  0.000000000  0.076413061

  length of vectors
    13.086768000 13.086768000 13.086768000     0.076413061  0.076413061  0.076413061



 k-points in units of 2pi/SCALE and weight: Automatically generated mesh            
   0.00000000  0.00000000  0.00000000       0.125
   0.03820653  0.00000000  0.00000000       0.125
   0.00000000  0.03820653  0.00000000       0.125
   0.03820653  0.03820653  0.00000000       0.125
   0.00000000  0.00000000  0.03820653       0.125
   0.03820653  0.00000000  0.03820653       0.125
   0.00000000  0.03820653  0.03820653       0.125
   0.03820653  0.03820653  0.03820653       0.125

 k-points in reciprocal lattice and weights: Automatically generated mesh            
   0.00000000  0.00000000  0.00000000       0.125
   0.50000000  0.00000000  0.00000000       0.125
   0.00000000  0.50000000  0.00000000       0.125
   0.50000000  0.50000000  0.00000000       0.125
   0.00000000  0.00000000  0.50000000       0.125
   0.50000000  0.00000000  0.50000000       0.125
   0.00000000  0.50000000  0.50000000       0.125
   0.50000000  0.50000000  0.50000000       0.125

 position of ions in fractional coordinates (direct lattice) 
   0.00448500  0.99551500  0.00448500
   0.00124700  0.99875300  0.49695900
   0.00124700  0.50304100  0.00124700
   0.99962500  0.50121800  0.49878200
   0.49695900  0.99875300  0.00124700
   0.49878100  0.00037500  0.49878100
   0.49878100  0.50121900  0.99962500
   0.50052800  0.49947200  0.50052800
   0.00124700  0.25124700  0.25304000
   0.00448600  0.25448500  0.74551500
   0.99962500  0.74878200  0.25121800
   0.00124700  0.74695900  0.74875300
   0.49878200  0.24962500  0.25121900
   0.49696000  0.25124700  0.74875300
   0.50052800  0.75052800  0.24947200
   0.49878100  0.74878100  0.75037500
   0.25121900  0.00037500  0.25121900
   0.25304000  0.99875300  0.74875300
   0.24947200  0.49947200  0.24947200
   0.25121900  0.50121900  0.75037500
   0.74875300  0.99875300  0.25304000
   0.74551400  0.99551500  0.74551500
   0.75037500  0.50121900  0.25121900
   0.74875300  0.50304000  0.74875300
   0.25304000  0.25124700  0.00124700
   0.25121900  0.24962500  0.49878100
   0.25121900  0.74878100  0.99962500
   0.24947200  0.75052800  0.50052800
   0.74551400  0.25448500  0.00448500
   0.74875300  0.25124700  0.49696000
   0.74875300  0.74695900  0.00124700
   0.75037500  0.74878200  0.49878200
   0.87500000  0.12500000  0.87500000
   0.12665600  0.12500000  0.37500000
   0.13277900  0.12500000  0.87500000
   0.12589200  0.62500000  0.37500000
   0.12665600  0.62500000  0.87500000
   0.62334400  0.12500000  0.37500000
   0.61722100  0.12500000  0.87500000
   0.62410800  0.62500000  0.37500000
   0.62334400  0.62500000  0.87500000
   0.12484800  0.37484800  0.12484800
   0.12748800  0.37748800  0.62251200
   0.12748800  0.87251200  0.12748800
   0.12484800  0.87515200  0.62515200
   0.62251200  0.37748800  0.12748800
   0.62515200  0.37484800  0.62515200
   0.62515200  0.87515200  0.12484800
   0.62251200  0.87251200  0.62251200
   0.37500000  0.12500000  0.12665600
   0.37500000  0.12500000  0.62334400
   0.37500000  0.62500000  0.12589200
   0.37500000  0.62500000  0.62410800
   0.87500000  0.12500000  0.13277900
   0.87500000  0.12500000  0.61722100
   0.87500000  0.62500000  0.12665600
   0.87500000  0.62500000  0.62334400
   0.37500000  0.37589200  0.37500000
   0.37500000  0.37665600  0.87500000
   0.37500000  0.87410800  0.37500000
   0.37500000  0.87334400  0.87500000
   0.87500000  0.37665600  0.37500000
   0.87500000  0.38277900  0.87500000
   0.87500000  0.87334400  0.37500000
   0.87500000  0.86722100  0.87500000

 position of ions in cartesian coordinates  (Angst):
   0.05869415 13.02807385  0.05869415
   0.01631920 13.07044880  6.50358714
   0.01631920  6.58318086  0.01631920
  13.08186046  6.55932368  6.52744432
   6.50358714 13.07044880  0.01631920
   6.52743123  0.00490754  6.52743123
   6.52743123  6.55933677 13.08186046
   6.55029381  6.53647419  6.55029381
   0.01631920  3.28801120  3.31147577
   0.05870724  3.33038615  9.75638185
  13.08186046  9.79913632  3.28763168
   0.01631920  9.77527914  9.79875680
   6.52744432  3.26678446  3.28764477
   6.50360023  3.28801120  9.79875680
   6.55029381  9.82198581  3.26478219
   6.52743123  9.79912323  9.81998354
   3.28764477  0.00490754  3.28764477
   3.31147577 13.07044880  9.79875680
   3.26478219  6.53647419  3.26478219
   3.28764477  6.55933677  9.81998354
   9.79875680 13.07044880  3.31147577
   9.75636876 13.02807385  9.75638185
   9.81998354  6.55933677  3.28764477
   9.79875680  6.58316777  9.79875680
   3.31147577  3.28801120  0.01631920
   3.28764477  3.26678446  6.52743123
   3.28764477  9.79912323 13.08186046
   3.26478219  9.82198581  6.55029381
   9.75636876  3.33038615  0.05869415
   9.79875680  3.28801120  6.50360023
   9.79875680  9.77527914  0.01631920
   9.81998354  9.79913632  6.52744432
  11.45092200  1.63584600 11.45092200
   1.65751769  1.63584600  4.90753800
   1.73764797  1.63584600 11.45092200
   1.64751940  8.17923000  4.90753800
   1.65751769  8.17923000 11.45092200
   8.15755831  1.63584600  4.90753800
   8.07742803  1.63584600 11.45092200
   8.16755660  8.17923000  4.90753800
   8.15755831  8.17923000 11.45092200
   1.63385681  4.90554881  1.63385681
   1.66840588  4.94009788  8.14667012
   1.66840588 11.41836212  1.66840588
   1.63385681 11.45291119  8.18121919
   8.14667012  4.94009788  1.66840588
   8.18121919  4.90554881  8.18121919
   8.18121919 11.45291119  1.63385681
   8.14667012 11.41836212  8.14667012
   4.90753800  1.63584600  1.65751769
   4.90753800  1.63584600  8.15755831
   4.90753800  8.17923000  1.64751940
   4.90753800  8.17923000  8.16755660
  11.45092200  1.63584600  1.73764797
  11.45092200  1.63584600  8.07742803
  11.45092200  8.17923000  1.65751769
  11.45092200  8.17923000  8.15755831
   4.90753800  4.91921140  4.90753800
   4.90753800  4.92920969 11.45092200
   4.90753800 11.43924860  4.90753800
   4.90753800 11.42925031 11.45092200
  11.45092200  4.92920969  4.90753800
  11.45092200  5.00933997 11.45092200
  11.45092200 11.42925031  4.90753800
  11.45092200 11.34912003 11.45092200

 Euler angles ALPHA=     0.0000000  BETA=     0.0000000

 transformation matrix from SAXIS to cartesian coordinates
 ---------------------------------------------------------
     1.0000000 m_x    -0.0000000 m_y     0.0000000 m_z
     0.0000000 m_x     1.0000000 m_y     0.0000000 m_z
    -0.0000000 m_x     0.0000000 m_y     1.0000000 m_z

 transformation matrix from cartesian coordinates to SAXIS
 ---------------------------------------------------------
     1.0000000 m_x     0.0000000 m_y    -0.0000000 m_z
    -0.0000000 m_x     1.0000000 m_y     0.0000000 m_z
     0.0000000 m_x     0.0000000 m_y     1.0000000 m_z




--------------------------------------------------------------------------------------------------------


 k-point  1 :   0.0000 0.0000 0.0000  plane waves:   97002
 k-point  2 :   0.5000 0.0000 0.0000  plane waves:   97356
 k-point  3 :   0.0000 0.5000 0.0000  plane waves:   97356
 k-point  4 :   0.5000 0.5000 0.0000  plane waves:   96960
 k-point  5 :   0.0000 0.0000 0.5000  plane waves:   97356
 k-point  6 :   0.5000 0.0000 0.5000  plane waves:   96960
 k-point  7 :   0.0000 0.5000 0.5000  plane waves:   96960
 k-point  8 :   0.5000 0.5000 0.5000  plane waves:   96832

 maximum and minimum number of plane-waves per node :     12212    12064

 maximum number of plane-waves:     97356
 maximum index in each direction: 
   IXMAX=   22   IYMAX=   22   IZMAX=   22
   IXMIN=  -23   IYMIN=  -23   IZMIN=  -23


 parallel 3D FFT for wavefunctions:
    minimum data exchange during FFTs selected (reduces bandwidth)
 parallel 3D FFT for charge:
    minimum data exchange during FFTs selected (reduces bandwidth)


 FFT grid for exact exchange (Hartree Fock) 
  NGX = 48; NGY = 48; NGZ = 48


 Radii for the augmentation spheres in the non-local exchange
 for species   1 augmentation radius   1.444 (default was   1.070)
       energy cutoff for augmentation   1800.0
 for species   2 augmentation radius   1.606 (default was   1.190)
       energy cutoff for augmentation   1800.0

 real space projection operators:
  total allocation   :       9375.20 KBytes
  max/ min on nodes  :       1191.99       1140.62

 Maximum index for augmentation-charges in exchange          106
  SETUP_FOCK is finished

 total amount of memory used by VASP MPI-rank0   211615. kBytes
=======================================================================

   base      :      30000. kBytes
   nonl-proj :      20438. kBytes
   fftplans  :      14677. kBytes
   grid      :      23003. kBytes
   one-center:        559. kBytes
   HF        :        129. kBytes
   nonlr-proj:       2389. kBytes
   wavefun   :     120420. kBytes

     INWAV:  cpu time    0.0000: real time    0.0000
 Broyden mixing: mesh for mixing (old mesh)
   NGX = 45   NGY = 45   NGZ = 45
  (NGX  =192   NGY  =192   NGZ  =192)
  gives a total of  91125 points

 initial charge density was supplied:
 number of electron     588.0000006 magnetization       0.1811568      0.1812268      0.1812061
 keeping initial charge density in first step


--------------------------------------------------------------------------------------------------------


 Maximum index for augmentation-charges         3093 (set IRDMAX)


--------------------------------------------------------------------------------------------------------


 First call to EWALD:  gamma=   0.135
 Maximum number of real-space cells 3x 3x 3
 Maximum number of reciprocal cells 3x 3x 3

    FEWALD:  cpu time    0.0153: real time    0.0153


--------------------------------------- Iteration      1(   1)  ---------------------------------------


    POTLOK:  cpu time    0.2733: real time    0.2736
    SETDIJ:  cpu time    1.5606: real time    1.5608
    TRIAL :  cpu time   15.0041: real time   15.0096
    CORREC:  cpu time    0.0012: real time    0.0012
    --------------------------------------------
      LOOP:  cpu time   16.9098: real time   16.9256

 eigenvalue-minimisations  : 12832
 total energy-change (2. order) : 0.4561778E+04  (-0.2566214E+05)
 number of electron     588.0000006 magnetization       0.1811568      0.1812268      0.1812061
 augmentation part      588.0000006 magnetization       0.1811568      0.1812268      0.1812061

 Free energy of the ion-electron system (eV)
  ---------------------------------------------------
  alpha Z        PSCENC =      1642.45118531
  Ewald energy   TEWEN  =    -33940.17512420
  -Hartree energ DENC   =    -16807.89411412
  -exchange      EXHF   =         0.00000000
  -V(xc)+E(xc)   XCENC  =      -629.05571246
  PAW double counting   =    116049.37676004  -113998.35977425
  entropy T*S    EENTRO =        -0.03286556
  eigenvalues    EBANDS =      2496.04178040
  atomic energy  EATOM  =     49749.42546356
  ---------------------------------------------------
  free energy    TOTEN  =      4561.77759872 eV

  energy without entropy =     4561.81046428  energy(sigma->0) =     4561.79403150
  exchange ACFDT corr.  =         0.00000000  see jH, gK, PRB 81, 115126


--------------------------------------------------------------------------------------------------------




--------------------------------------- Iteration      1(   2)  ---------------------------------------


    TRIAL :  cpu time   15.9681: real time   15.9749
    CORREC:  cpu time    0.0013: real time    0.0013
    --------------------------------------------
      LOOP:  cpu time   15.9748: real time   15.9914

 eigenvalue-minimisations  : 13920
 total energy-change (2. order) :-0.3416174E+04  (-0.3276546E+04)
 number of electron     588.0000006 magnetization       0.1811568      0.1812268      0.1812061
 augmentation part      588.0000006 magnetization       0.1811568      0.1812268      0.1812061

 Free energy of the ion-electron system (eV)
  ---------------------------------------------------
  alpha Z        PSCENC =      1642.45118531
  Ewald energy   TEWEN  =    -33940.17512420
  -Hartree energ DENC   =    -16807.89411412
  -exchange      EXHF   =         0.00000000
  -V(xc)+E(xc)   XCENC  =      -629.05571246
  PAW double counting   =    116049.37676004  -113998.35977425
  entropy T*S    EENTRO =        -0.00888550
  eigenvalues    EBANDS =      -920.15662857
  atomic energy  EATOM  =     49749.42546356
  ---------------------------------------------------
  free energy    TOTEN  =      1145.60316981 eV

  energy without entropy =     1145.61205531  energy(sigma->0) =     1145.60761256
  exchange ACFDT corr.  =         0.00000000  see jH, gK, PRB 81, 115126


--------------------------------------------------------------------------------------------------------




--------------------------------------- Iteration      1(   3)  ---------------------------------------


    TRIAL :  cpu time   16.8515: real time   16.8549
    CORREC:  cpu time    0.0013: real time    0.0013
    --------------------------------------------
      LOOP:  cpu time   16.8604: real time   16.8738

 eigenvalue-minimisations  : 14784
 total energy-change (2. order) :-0.2118063E+03  (-0.2094948E+03)
 number of electron     588.0000006 magnetization       0.1811568      0.1812268      0.1812061
 augmentation part      588.0000006 magnetization       0.1811568      0.1812268      0.1812061

 Free energy of the ion-electron system (eV)
  ---------------------------------------------------
  alpha Z        PSCENC =      1642.45118531
  Ewald energy   TEWEN  =    -33940.17512420
  -Hartree energ DENC   =    -16807.89411412
  -exchange      EXHF   =         0.00000000
  -V(xc)+E(xc)   XCENC  =      -629.05571246
  PAW double counting   =    116049.37676004  -113998.35977425
  entropy T*S    EENTRO =        -0.01201393
  eigenvalues    EBANDS =     -1131.95977858
  atomic energy  EATOM  =     49749.42546356
  ---------------------------------------------------
  free energy    TOTEN  =       933.79689136 eV

  energy without entropy =      933.80890530  energy(sigma->0) =      933.80289833
  exchange ACFDT corr.  =         0.00000000  see jH, gK, PRB 81, 115126


--------------------------------------------------------------------------------------------------------




--------------------------------------- Iteration      1(   4)  ---------------------------------------


    TRIAL :  cpu time   16.5736: real time   16.5746
    CORREC:  cpu time    0.0019: real time    0.0019
    --------------------------------------------
      LOOP:  cpu time   16.5899: real time   16.5919

 eigenvalue-minimisations  : 14624
 total energy-change (2. order) :-0.4712897E+01  (-0.4703346E+01)
 number of electron     588.0000006 magnetization       0.1811568      0.1812268      0.1812061
 augmentation part      588.0000006 magnetization       0.1811568      0.1812268      0.1812061

 Free energy of the ion-electron system (eV)
  ---------------------------------------------------
  alpha Z        PSCENC =      1642.45118531
  Ewald energy   TEWEN  =    -33940.17512420
  -Hartree energ DENC   =    -16807.89411412
  -exchange      EXHF   =         0.00000000
  -V(xc)+E(xc)   XCENC  =      -629.05571246
  PAW double counting   =    116049.37676004  -113998.35977425
  entropy T*S    EENTRO =        -0.01196508
  eigenvalues    EBANDS =     -1136.67272466
  atomic energy  EATOM  =     49749.42546356
  ---------------------------------------------------
  free energy    TOTEN  =       929.08399414 eV

  energy without entropy =      929.09595922  energy(sigma->0) =      929.08997668
  exchange ACFDT corr.  =         0.00000000  see jH, gK, PRB 81, 115126


--------------------------------------------------------------------------------------------------------




--------------------------------------- Iteration      1(   5)  ---------------------------------------


    TRIAL :  cpu time   17.2636: real time   17.2647
    CORREC:  cpu time    0.0013: real time    0.0013
    CHARGE:  cpu time    1.4479: real time    1.4481
    --------------------------------------------
      LOOP:  cpu time   18.7214: real time   18.7341

 eigenvalue-minimisations  : 15392
 total energy-change (2. order) :-0.9506667E-01  (-0.9488054E-01)
 number of electron     588.0000006 magnetization       0.0489598      0.0499682      0.0495870
 augmentation part      148.8996527 magnetization       0.0417709      0.0417027      0.0417242

 Free energy of the ion-electron system (eV)
  ---------------------------------------------------
  alpha Z        PSCENC =      1642.45118531
  Ewald energy   TEWEN  =    -33940.17512420
  -Hartree energ DENC   =    -16807.89411412
  -exchange      EXHF   =         0.00000000
  -V(xc)+E(xc)   XCENC  =      -629.05571246
  PAW double counting   =    116049.37676004  -113998.35977425
  entropy T*S    EENTRO =        -0.01196227
  eigenvalues    EBANDS =     -1136.76779415
  atomic energy  EATOM  =     49749.42546356
  ---------------------------------------------------
  free energy    TOTEN  =       928.98892746 eV

  energy without entropy =      929.00088973  energy(sigma->0) =      928.99490860
  exchange ACFDT corr.  =         0.00000000  see jH, gK, PRB 81, 115126


--------------------------------------------------------------------------------------------------------




--------------------------------------- Iteration      1(   6)  ---------------------------------------


    POTLOK:  cpu time    0.2543: real time    0.2543
    SETDIJ:  cpu time    1.5424: real time    1.5425
    TRIAL :  cpu time  994.5320: real time  994.7767
    CORREC:  cpu time  976.5496: real time  976.8312
    EDDIAG:  cpu time  992.6861: real time  992.8897
    CHARGE:  cpu time    1.4454: real time    1.4472
    --------------------------------------------
      LOOP:  cpu time 2967.0129: real time 2967.7560

 eigenvalue-minimisations  :     0
 total energy-change (2. order) :-0.1097587E+04  (-0.2264835E+02)
 number of electron     588.0000006 magnetization       0.0396584      0.0405484      0.0405132
 augmentation part      154.2179294 magnetization       0.0261048      0.0261255      0.0263420

 Free energy of the ion-electron system (eV)
  ---------------------------------------------------
  alpha Z        PSCENC =      1642.45118531
  Ewald energy   TEWEN  =    -33940.17512420
  -Hartree energ DENC   =    -16095.27793542
  -exchange      EXHF   =      1130.71085160
  -V(xc)+E(xc)   XCENC  =      -647.01053304
  PAW double counting   =    119157.31342987  -117089.20786939
  entropy T*S    EENTRO =        -0.01089820
  eigenvalues    EBANDS =     -4054.92768760
  atomic energy  EATOM  =     49749.42546356
  ---------------------------------------------------
  free energy    TOTEN  =      -168.59766896 eV

  energy without entropy =     -168.58677076  energy(sigma->0) =     -168.59221986
  exchange ACFDT corr.  =        -0.01659160  see jH, gK, PRB 81, 115126


--------------------------------------------------------------------------------------------------------


  average scaling for gradient   0.9523


 average (electrostatic) potential at core
  the test charge radii are     1.0698  1.1897
  (the norm of the test charge is              1.0000)
       1 -31.6747       2 -31.9611       3 -31.9615       4 -32.2358       5 -31.9609
       6 -32.2349       7 -32.2342       8 -32.3831       9 -31.9599      10 -31.6750
      11 -32.2344      12 -31.9618      13 -32.2347      14 -31.9608      15 -32.3850
      16 -32.2347      17 -32.2324      18 -31.9615      19 -32.3847      20 -32.2338
      21 -31.9617      22 -31.6743      23 -32.2337      24 -31.9615      25 -31.9620
      26 -32.2351      27 -32.2335      28 -32.3848      29 -31.6750      30 -31.9616
      31 -31.9627      32 -32.2364      33 -29.9235      34 -88.4270      35 -88.0224
      36 -88.6599      37 -88.4275      38 -88.4273      39 -88.0231      40 -88.6600
      41 -88.4275      42 -88.3726      43 -88.4706      44 -88.4698      45 -88.3725
      46 -88.4704      47 -88.3725      48 -88.3728      49 -88.4715      50 -88.4267
      51 -88.4275      52 -88.6588      53 -88.6594      54 -88.0232      55 -88.0235
      56 -88.4277      57 -88.4284      58 -88.6592      59 -88.4269      60 -88.6593
      61 -88.4269      62 -88.4271      63 -88.0234      64 -88.4275      65 -88.0239



 E-fermi :   4.6415     XC(G=0):  -7.3096     alpha+bet : -7.2837


 k-point     1 :       0.0000    0.0000    0.0000
  band No.  band energies     occupation 
      1     -10.7861      1.00000
      2     -10.7794      1.00000
      3     -10.5449      1.00000
      4     -10.5444      1.00000
      5     -10.5442      1.00000
      6     -10.5373      1.00000
      7     -10.5369      1.00000
      8     -10.5366      1.00000
      9     -10.5219      1.00000
     10     -10.5217      1.00000
     11     -10.5144      1.00000
     12     -10.5141      1.00000
     13     -10.4912      1.00000
     14     -10.4834      1.00000
     15     -10.4048      1.00000
     16     -10.4045      1.00000
     17     -10.4040      1.00000
     18     -10.3969      1.00000
     19     -10.3968      1.00000
     20     -10.3961      1.00000
     21     -10.3585      1.00000
     22     -10.3583      1.00000
     23     -10.3506      1.00000
     24     -10.3503      1.00000
     25     -10.3258      1.00000
     26     -10.3256      1.00000
     27     -10.3252      1.00000
     28     -10.3186      1.00000
     29     -10.3178      1.00000
     30     -10.3174      1.00000
     31     -10.3104      1.00000
     32     -10.3039      1.00000
     33     -10.3038      1.00000
     34     -10.3027      1.00000
     35     -10.3027      1.00000
     36     -10.2963      1.00000
     37     -10.2962      1.00000
     38     -10.2958      1.00000
     39     -10.2504      1.00000
     40     -10.2501      1.00000
     41     -10.2422      1.00000
     42     -10.2420      1.00000
     43     -10.2053      1.00000
     44     -10.2049      1.00000
     45     -10.1997      1.00000
     46     -10.1967      1.00000
     47     -10.1936      1.00000
     48     -10.1918      1.00000
     49     -10.1881      1.00000
     50     -10.1874      1.00000
     51     -10.1827      1.00000
     52     -10.1800      1.00000
     53      -9.9855      1.00000
     54      -9.9745      1.00000
     55      -9.8905      1.00000
     56      -9.8900      1.00000
     57      -9.8895      1.00000
     58      -9.8791      1.00000
     59      -9.8786      1.00000
     60      -9.8780      1.00000
     61      -9.8460      1.00000
     62      -9.8456      1.00000
     63      -9.8347      1.00000
     64      -9.8343      1.00000
     65      -7.9202      1.00000
     66      -7.9199      1.00000
     67      -7.9195      1.00000
     68      -7.9194      1.00000
     69      -7.9135      1.00000
     70      -7.9132      1.00000
     71      -7.9131      1.00000
     72      -7.9126      1.00000
     73      -7.8580      1.00000
     74      -7.8577      1.00000
     75      -7.8575      1.00000
     76      -7.8572      1.00000
     77      -7.8524      1.00000
     78      -7.8523      1.00000
     79      -7.8521      1.00000
     80      -7.8520      1.00000
     81      -7.8076      1.00000
     82      -7.8071      1.00000
     83      -7.8069      1.00000
     84      -7.8067      1.00000
     85      -7.7907      1.00000
     86      -7.7906      1.00000
     87      -7.7772      1.00000
     88      -7.7770      1.00000
     89      -7.7767      1.00000
     90      -7.7765      1.00000
     91      -7.7704      1.00000
     92      -7.7703      1.00000
     93      -7.7689      1.00000
     94      -7.7688      1.00000
     95      -7.7685      1.00000
     96      -7.7685      1.00000
     97      -7.7675      1.00000
     98      -7.7673      1.00000
     99      -7.7482      1.00000
    100      -7.7481      1.00000
    101      -7.7479      1.00000
    102      -7.7479      1.00000
    103      -7.7427      1.00000
    104      -7.7424      1.00000
    105      -7.7422      1.00000
    106      -7.7419      1.00000
    107      -7.7378      1.00000
    108      -7.7376      1.00000
    109      -7.6894      1.00000
    110      -7.6892      1.00000
    111      -7.6890      1.00000
    112      -7.6890      1.00000
    113      -7.6692      1.00000
    114      -7.6690      1.00000
    115      -7.6586      1.00000
    116      -7.6585      1.00000
    117      -7.6584      1.00000
    118      -7.6581      1.00000
    119      -7.6556      1.00000
    120      -7.6553      1.00000
    121      -7.6375      1.00000
    122      -7.6372      1.00000
    123      -7.6223      1.00000
    124      -7.6218      1.00000
    125      -7.5618      1.00000
    126      -7.5617      1.00000
    127      -7.5616      1.00000
    128      -7.5615      1.00000
    129      -7.5506      1.00000
    130      -7.5504      1.00000
    131      -7.5503      1.00000
    132      -7.5501      1.00000
    133      -7.5225      1.00000
    134      -7.5224      1.00000
    135      -7.5216      1.00000
    136      -7.5215      1.00000
    137      -7.5213      1.00000
    138      -7.5212      1.00000
    139      -7.5144      1.00000
    140      -7.5143      1.00000
    141      -7.5140      1.00000
    142      -7.5140      1.00000
    143      -7.5132      1.00000
    144      -7.5129      1.00000
    145      -7.5104      1.00000
    146      -7.5104      1.00000
    147      -7.4835      1.00000
    148      -7.4833      1.00000
    149      -7.4831      1.00000
    150      -7.4829      1.00000
    151      -7.4775      1.00000
    152      -7.4775      1.00000
    153      -7.4774      1.00000
    154      -7.4773      1.00000
    155      -7.4576      1.00000
    156      -7.4574      1.00000
    157      -7.4309      1.00000
    158      -7.4305      1.00000
    159      -7.4096      1.00000
    160      -7.4094      1.00000
    161      -7.4093      1.00000
    162      -7.4092      1.00000
    163      -7.3708      1.00000
    164      -7.3705      1.00000
    165      -7.3644      1.00000
    166      -7.3642      1.00000
    167      -7.3641      1.00000
    168      -7.3639      1.00000
    169      -7.3405      1.00000
    170      -7.3403      1.00000
    171      -7.3344      1.00000
    172      -7.3342      1.00000
    173      -7.3341      1.00000
    174      -7.3341      1.00000
    175      -7.3138      1.00000
    176      -7.3137      1.00000
    177      -7.2859      1.00000
    178      -7.2855      1.00000
    179      -7.2539      1.00000
    180      -7.2537      1.00000
    181      -7.2466      1.00000
    182      -7.2463      1.00000
    183      -7.2461      1.00000
    184      -7.2456      1.00000
    185      -7.2370      1.00000
    186      -7.2355      1.00000
    187      -7.2191      1.00000
    188      -7.2190      1.00000
    189      -7.2189      1.00000
    190      -7.2189      1.00000
    191      -7.1931      1.00000
    192      -7.1926      1.00000
    193      -7.1917      1.00000
    194      -7.1916      1.00000
    195      -7.1915      1.00000
    196      -7.1914      1.00000
    197      -7.1813      1.00000
    198      -7.1813      1.00000
    199      -7.1811      1.00000
    200      -7.1810      1.00000
    201      -7.1698      1.00000
    202      -7.1694      1.00000
    203      -7.1522      1.00000
    204      -7.1522      1.00000
    205      -7.1520      1.00000
    206      -7.1518      1.00000
    207      -7.1360      1.00000
    208      -7.1359      1.00000
    209      -7.1357      1.00000
    210      -7.1356      1.00000
    211      -7.1320      1.00000
    212      -7.1315      1.00000
    213      -7.1219      1.00000
    214      -7.1216      1.00000
    215      -7.1111      1.00000
    216      -7.1110      1.00000
    217      -7.1109      1.00000
    218      -7.1108      1.00000
    219      -7.1065      1.00000
    220      -7.1064      1.00000
    221      -7.0934      1.00000
    222      -7.0933      1.00000
    223      -7.0932      1.00000
    224      -7.0931      1.00000
    225      -7.0835      1.00000
    226      -7.0835      1.00000
    227      -7.0810      1.00000
    228      -7.0809      1.00000
    229      -7.0808      1.00000
    230      -7.0806      1.00000
    231      -7.0708      1.00000
    232      -7.0706      1.00000
    233      -7.0705      1.00000
    234      -7.0702      1.00000
    235      -7.0547      1.00000
    236      -7.0547      1.00000
    237      -7.0544      1.00000
    238      -7.0544      1.00000
    239      -7.0498      1.00000
    240      -7.0496      1.00000
    241      -7.0469      1.00000
    242      -7.0466      1.00000
    243      -7.0465      1.00000
    244      -7.0463      1.00000
    245      -7.0341      1.00000
    246      -7.0338      1.00000
    247      -7.0173      1.00000
    248      -7.0172      1.00000
    249      -7.0136      1.00000
    250      -7.0135      1.00000
    251      -7.0133      1.00000
    252      -7.0132      1.00000
    253      -6.9955      1.00000
    254      -6.9954      1.00000
    255      -6.9950      1.00000
    256      -6.9949      1.00000
    257      -6.9912      1.00000
    258      -6.9912      1.00000
    259      -6.9749      1.00000
    260      -6.9747      1.00000
    261      -6.9731      1.00000
    262      -6.9730      1.00000
    263      -6.9728      1.00000
    264      -6.9726      1.00000
    265      -6.9523      1.00000
    266      -6.9521      1.00000
    267      -6.9518      1.00000
    268      -6.9518      1.00000
    269      -6.9405      1.00000
    270      -6.9399      1.00000
    271      -6.9335      1.00000
    272      -6.9334      1.00000
    273      -6.8955      1.00000
    274      -6.8953      1.00000
    275      -6.8952      1.00000
    276      -6.8949      1.00000
    277      -6.8877      1.00000
    278      -6.8875      1.00000
    279      -6.8874      1.00000
    280      -6.8872      1.00000
    281      -6.8607      1.00000
    282      -6.8606      1.00000
    283      -6.8606      1.00000
    284      -6.8605      1.00000
    285      -6.8566      1.00000
    286      -6.8563      1.00000
    287      -6.8422      1.00000
    288      -6.8420      1.00000
    289      -6.8281      1.00000
    290      -6.8279      1.00000
    291      -6.8278      1.00000
    292      -6.8277      1.00000
    293      -6.8202      1.00000
    294      -6.8193      1.00000
    295      -6.8064      1.00000
    296      -6.8063      1.00000
    297      -6.8062      1.00000
    298      -6.8060      1.00000
    299      -6.8042      1.00000
    300      -6.8037      1.00000
    301      -6.8002      1.00000
    302      -6.7998      1.00000
    303      -6.7911      1.00000
    304      -6.7910      1.00000
    305      -6.7909      1.00000
    306      -6.7908      1.00000
    307      -6.7871      1.00000
    308      -6.7867      1.00000
    309      -6.7808      1.00000
    310      -6.7807      1.00000
    311      -6.7805      1.00000
    312      -6.7805      1.00000
    313      -6.7787      1.00000
    314      -6.7785      1.00000
    315      -6.7554      1.00000
    316      -6.7552      1.00000
    317      -6.7550      1.00000
    318      -6.7549      1.00000
    319      -6.7346      1.00000
    320      -6.7345      1.00000
    321      -6.7343      1.00000
    322      -6.7340      1.00000
    323      -6.7233      1.00000
    324      -6.7232      1.00000
    325      -6.7230      1.00000
    326      -6.7228      1.00000
    327      -6.7117      1.00000
    328      -6.7117      1.00000
    329      -6.6833      1.00000
    330      -6.6829      1.00000
    331      -6.6759      1.00000
    332      -6.6756      1.00000
    333      -6.6613      1.00000
    334      -6.6611      1.00000
    335      -6.6608      1.00000
    336      -6.6607      1.00000
    337      -6.6406      1.00000
    338      -6.6405      1.00000
    339      -6.6402      1.00000
    340      -6.6401      1.00000
    341      -6.6271      1.00000
    342      -6.6269      1.00000
    343      -6.6267      1.00000
    344      -6.6265      1.00000
    345      -6.5764      1.00000
    346      -6.5756      1.00000
    347      -6.5396      1.00000
    348      -6.5393      1.00000
    349      -6.5390      1.00000
    350      -6.5387      1.00000
    351      -6.5204      1.00000
    352      -6.5202      1.00000
    353      -6.5195      1.00000
    354      -6.5193      1.00000
    355      -6.5191      1.00000
    356      -6.5190      1.00000
    357      -6.5167      1.00000
    358      -6.5161      1.00000
    359      -6.4909      1.00000
    360      -6.4909      1.00000
    361      -6.4907      1.00000
    362      -6.4907      1.00000
    363      -6.4853      1.00000
    364      -6.4840      1.00000
    365      -6.4824      1.00000
    366      -6.4822      1.00000
    367      -6.4363      1.00000
    368      -6.4357      1.00000
    369      -6.4355      1.00000
    370      -6.4350      1.00000
    371      -6.4239      1.00000
    372      -6.4215      1.00000
    373      -6.3948      1.00000
    374      -6.3938      1.00000
    375      -6.3677      1.00000
    376      -6.3673      1.00000
    377      -6.3669      1.00000
    378      -6.3663      1.00000
    379      -6.3026      1.00000
    380      -6.3024      1.00000
    381      -6.2354      1.00000
    382      -6.2352      1.00000
    383      -6.2336      1.00000
    384      -6.2335      1.00000
    385      -5.5381      1.00000
    386      -5.5371      1.00000
    387      -5.5359      1.00000
    388      -5.5350      1.00000
    389      -4.9171      1.00000
    390      -4.9149      1.00000
    391      -4.9112      1.00000
    392      -4.9103      1.00000
    393      -4.9077      1.00000
    394      -4.9076      1.00000
    395      -3.2744      1.00000
    396      -3.2699      1.00000
    397      -3.1283      1.00000
    398      -3.1283      1.00000
    399      -3.1282      1.00000
    400      -3.1281      1.00000
    401      -3.1199      1.00000
    402      -3.1198      1.00000
    403      -3.0734      1.00000
    404      -3.0733      1.00000
    405      -3.0732      1.00000
    406      -3.0730      1.00000
    407      -3.0050      1.00000
    408      -3.0049      1.00000
    409      -2.9765      1.00000
    410      -2.9764      1.00000
    411      -2.8591      1.00000
    412      -2.8588      1.00000
    413      -2.8586      1.00000
    414      -2.8583      1.00000
    415      -2.6740      1.00000
    416      -2.6737      1.00000
    417      -2.6736      1.00000
    418      -2.6733      1.00000
    419      -2.6198      1.00000
    420      -2.6198      1.00000
    421      -2.6123      1.00000
    422      -2.6061      1.00000
    423      -2.4535      1.00000
    424      -2.4534      1.00000
    425      -2.4529      1.00000
    426      -2.4528      1.00000
    427      -2.4505      1.00000
    428      -2.4499      1.00000
    429      -2.3620      1.00000
    430      -2.3618      1.00000
    431      -2.3617      1.00000
    432      -2.3615      1.00000
    433      -2.3225      1.00000
    434      -2.3218      1.00000
    435      -2.2396      1.00000
    436      -2.2393      1.00000
    437      -2.2391      1.00000
    438      -2.2388      1.00000
    439      -2.1983      1.00000
    440      -2.1981      1.00000
    441      -2.1978      1.00000
    442      -2.1974      1.00000
    443      -2.1320      1.00000
    444      -2.1315      1.00000
    445      -1.4179      1.00000
    446      -1.4116      1.00000
    447      -1.2932      1.00000
    448      -1.2927      1.00000
    449      -1.2915      1.00000
    450      -1.2909      1.00000
    451      -1.2734      1.00000
    452      -1.2726      1.00000
    453      -1.2476      1.00000
    454      -1.2473      1.00000
    455      -1.2453      1.00000
    456      -1.2445      1.00000
    457      -1.2333      1.00000
    458      -1.2325      1.00000
    459      -1.2306      1.00000
    460      -1.2298      1.00000
    461      -1.2256      1.00000
    462      -1.2244      1.00000
    463      -1.0010      1.00000
    464      -0.9951      1.00000
    465      -0.9133      1.00000
    466      -0.9121      1.00000
    467      -0.9118      1.00000
    468      -0.9109      1.00000
    469      -0.9106      1.00000
    470      -0.9090      1.00000
    471      -0.8520      1.00000
    472      -0.8519      1.00000
    473      -0.8502      1.00000
    474      -0.8499      1.00000
    475      -0.8438      1.00000
    476      -0.8418      1.00000
    477      -0.8240      1.00000
    478      -0.8223      1.00000
    479      -0.7889      1.00000
    480      -0.7885      1.00000
    481      -0.7880      1.00000
    482      -0.7875      1.00000
    483      -0.7611      1.00000
    484      -0.7592      1.00000
    485      -0.7582      1.00000
    486      -0.7563      1.00000
    487      -0.7309      1.00000
    488      -0.7292      1.00000
    489      -0.7221      1.00000
    490      -0.7220      1.00000
    491      -0.7183      1.00000
    492      -0.7183      1.00000
    493      -0.6954      1.00000
    494      -0.6929      1.00000
    495      -0.6412      1.00000
    496      -0.6410      1.00000
    497      -0.6388      1.00000
    498      -0.6386      1.00000
    499      -0.5994      1.00000
    500      -0.5991      1.00000
    501      -0.5781      1.00000
    502      -0.5775      1.00000
    503      -0.5773      1.00000
    504      -0.5767      1.00000
    505      -0.5173      1.00000
    506      -0.5172      1.00000
    507      -0.5166      1.00000
    508      -0.5165      1.00000
    509      -0.4830      1.00000
    510      -0.4806      1.00000
    511      -0.3031      1.00000
    512      -0.3027      1.00000
    513      -0.3004      1.00000
    514      -0.2999      1.00000
    515      -0.2477      1.00000
    516      -0.2457      1.00000
    517       0.1153      1.00000
    518       0.1186      1.00000
    519       0.1422      1.00000
    520       0.1449      1.00000
    521       0.1603      1.00000
    522       0.1616      1.00000
    523       0.1634      1.00000
    524       0.1637      1.00000
    525       0.1930      1.00000
    526       0.1931      1.00000
    527       0.1957      1.00000
    528       0.1960      1.00000
    529       0.3293      1.00000
    530       0.3322      1.00000
    531       0.3365      1.00000
    532       0.3371      1.00000
    533       0.3402      1.00000
    534       0.3407      1.00000
    535       0.3704      1.00000
    536       0.3733      1.00000
    537       0.5253      1.00000
    538       0.5257      1.00000
    539       0.5284      1.00000
    540       0.5287      1.00000
    541       0.5475      1.00000
    542       0.5477      1.00000
    543       0.5498      1.00000
    544       0.5503      1.00000
    545       0.5579      1.00000
    546       0.5606      1.00000
    547       0.5884      1.00000
    548       0.5887      1.00000
    549       0.6139      1.00000
    550       0.6160      1.00000
    551       0.6167      1.00000
    552       0.6187      1.00000
    553       0.6206      1.00000
    554       0.6265      1.00000
    555       0.6490      1.00000
    556       0.6499      1.00000
    557       0.6502      1.00000
    558       0.6559      1.00000
    559       0.6569      1.00000
    560       0.6581      1.00000
    561       0.6664      1.00000
    562       0.6679      1.00000
    563       0.6707      1.00000
    564       0.6735      1.00000
    565       0.6925      1.00000
    566       0.6952      1.00000
    567       0.7277      1.00000
    568       0.7283      1.00000
    569       0.7312      1.00000
    570       0.7318      1.00000
    571       0.7357      1.00000
    572       0.7388      1.00000
    573       0.8512      1.00000
    574       0.8551      1.00000
    575       0.9730      1.00000
    576       0.9732      1.00000
    577       0.9740      1.00000
    578       0.9741      1.00000
    579       1.0465      1.00000
    580       1.0469      1.00000
    581       1.0546      1.00000
    582       1.0550      1.00000
    583       1.7226      1.00000
    584       1.7266      1.00000
    585       1.7304      1.00000
    586       1.7344      1.00000
    587       2.6963      1.00000
    588       2.7025      1.00000
    589       3.6396      0.48358
    590       3.6595      0.46281
    591       4.0684      0.00000
    592       4.0688      0.00000
    593       4.0692      0.00000
    594       4.0744      0.00000
    595       4.0750      0.00000
    596       4.0756      0.00000
    597       4.1309      0.00000
    598       4.1361      0.00000
    599       4.8701      0.00000
    600       4.8701      0.00000
    601       4.8786      0.00000
    602       4.8787      0.00000
    603       5.0337      0.00000
    604       5.0337      0.00000
    605       5.0337      0.00000
    606       5.0360      0.00000
    607       5.0361      0.00000
    608       5.0369      0.00000
    609       5.1470      0.00000
    610       5.1507      0.00000
    611       5.2182      0.00000
    612       5.2286      0.00000
    613       5.2316      0.00000
    614       5.2338      0.00000
    615       5.2450      0.00000
    616       5.2532      0.00000
    617       5.2673      0.00000
    618       5.2722      0.00000
    619       5.4038      0.00000
    620       5.4066      0.00000
    621       5.4068      0.00000
    622       5.4072      0.00000
    623       5.4232      0.00000
    624       5.4286      0.00000
    625       5.4347      0.00000
    626       5.4352      0.00000
    627       5.4362      0.00000
    628       5.4419      0.00000
    629       5.4432      0.00000
    630       5.4439      0.00000
    631       5.4732      0.00000
    632       5.4732      0.00000
    633       5.4760      0.00000
    634       5.4777      0.00000
    635       5.4780      0.00000
    636       5.4781      0.00000
    637       5.4781      0.00000
    638       5.4844      0.00000
    639       5.4887      0.00000
    640       5.4947      0.00000
    641       5.4978      0.00000
    642       5.4995      0.00000
    643       5.5009      0.00000
    644       5.5026      0.00000
    645       5.5187      0.00000
    646       5.5236      0.00000
    647       5.5327      0.00000
    648       5.5399      0.00000
    649       5.5518      0.00000
    650       5.5542      0.00000
    651       5.5722      0.00000
    652       5.5762      0.00000
    653       5.5811      0.00000
    654       5.5813      0.00000
    655       5.5844      0.00000
    656       5.5856      0.00000
    657       6.2578      0.00000
    658       6.2583      0.00000
    659       6.4324      0.00000
    660       6.4324      0.00000
    661       6.4324      0.00000
    662       6.4326      0.00000
    663       6.5406      0.00000
    664       6.5411      0.00000
    665       6.8396      0.00000
    666       6.8409      0.00000
    667       6.9065      0.00000
    668       6.9069      0.00000
    669       6.9073      0.00000
    670       6.9084      0.00000
    671       6.9085      0.00000
    672       6.9103      0.00000
    673       6.9115      0.00000
    674       6.9127      0.00000
    675       6.9481      0.00000
    676       6.9508      0.00000
    677       6.9567      0.00000
    678       6.9606      0.00000
    679       6.9652      0.00000
    680       6.9667      0.00000
    681       6.9685      0.00000
    682       6.9687      0.00000
    683       6.9815      0.00000
    684       6.9849      0.00000
    685       7.1000      0.00000
    686       7.1029      0.00000
    687       7.1107      0.00000
    688       7.1122      0.00000
    689       7.1952      0.00000
    690       7.1990      0.00000
    691       7.2472      0.00000
    692       7.2496      0.00000
    693       7.2523      0.00000
    694       7.2546      0.00000
    695       7.4439      0.00000
    696       7.4441      0.00000
    697       7.4475      0.00000
    698       7.4476      0.00000
    699       7.5089      0.00000
    700       7.5130      0.00000
    701       7.5132      0.00000
    702       7.5134      0.00000
    703       7.5143      0.00000
    704       7.5143      0.00000
    705       7.5283      0.00000
    706       7.5326      0.00000
    707       7.5612      0.00000
    708       7.5629      0.00000
    709       7.5847      0.00000
    710       7.5847      0.00000
    711       7.5897      0.00000
    712       7.5909      0.00000
    713       7.6206      0.00000
    714       7.6218      0.00000
    715       7.6286      0.00000
    716       7.6302      0.00000
    717       7.6317      0.00000
    718       7.6325      0.00000
    719       7.6546      0.00000
    720       7.6572      0.00000
    721       7.6574      0.00000
    722       7.6603      0.00000
    723       7.6687      0.00000
    724       7.6707      0.00000
    725       7.6716      0.00000
    726       7.6741      0.00000
    727       7.7972      0.00000
    728       7.7979      0.00000
    729       7.8126      0.00000
    730       7.8128      0.00000
    731       7.8137      0.00000
    732       7.8145      0.00000
    733       7.8153      0.00000
    734       7.8162      0.00000
    735       7.8163      0.00000
    736       7.8209      0.00000
    737       7.8301      0.00000
    738       7.8303      0.00000
    739       7.8369      0.00000
    740       7.8887      0.00000
    741       7.8938      0.00000
    742       7.8965      0.00000
    743       7.8998      0.00000
    744       7.8999      0.00000
    745       7.9021      0.00000
    746       7.9079      0.00000
    747       7.9094      0.00000
    748       7.9375      0.00000
    749       7.9426      0.00000
    750       7.9689      0.00000
    751       7.9707      0.00000
    752       7.9719      0.00000
    753       8.0086      0.00000
    754       8.0092      0.00000
    755       8.0185      0.00000
    756       8.0199      0.00000
    757       8.0219      0.00000
    758       8.0268      0.00000
    759       8.0431      0.00000
    760       8.0442      0.00000
    761       8.0443      0.00000
    762       8.0492      0.00000
    763       8.1905      0.00000
    764       8.1912      0.00000
    765       8.1922      0.00000
    766       8.1962      0.00000
    767       8.1968      0.00000
    768       8.1991      0.00000
    769       8.3202      0.00000
    770       8.3279      0.00000
    771       8.3354      0.00000
    772       8.3378      0.00000
    773       8.3392      0.00000
    774       8.3394      0.00000
    775       8.3416      0.00000
    776       8.3421      0.00000
    777       8.3431      0.00000
    778       8.3501      0.00000
    779       8.3526      0.00000
    780       8.3540      0.00000
    781       8.3541      0.00000
    782       8.3591      0.00000
    783       8.3680      0.00000
    784       8.3757      0.00000
    785       8.3949      0.00000
    786       8.4199      0.00000
    787       8.6509      0.00000
    788       8.6530      0.00000
    789       8.6550      0.00000
    790       8.6561      0.00000
    791       8.6735      0.00000
    792       8.6760      0.00000
    793       8.6779      0.00000
    794       8.6890      0.00000
    795       8.6995      0.00000
    796       8.7225      0.00000
    797       8.7334      0.00000
    798       8.7748      0.00000
    799       8.8882      0.00000
    800       8.9483      0.00000

 k-point     2 :       0.5000    0.0000    0.0000
  band No.  band energies     occupation 
      1     -10.7478      1.00000
      2     -10.7405      1.00000
      3     -10.6461      1.00000
      4     -10.6386      1.00000
      5     -10.5411      1.00000
      6     -10.5407      1.00000
      7     -10.5335      1.00000
      8     -10.5331      1.00000
      9     -10.5148      1.00000
     10     -10.5072      1.00000
     11     -10.4983      1.00000
     12     -10.4905      1.00000
     13     -10.4508      1.00000
     14     -10.4429      1.00000
     15     -10.4187      1.00000
     16     -10.4110      1.00000
     17     -10.4019      1.00000
     18     -10.4001      1.00000
     19     -10.3937      1.00000
     20     -10.3920      1.00000
     21     -10.3843      1.00000
     22     -10.3764      1.00000
     23     -10.3603      1.00000
     24     -10.3590      1.00000
     25     -10.3522      1.00000
     26     -10.3509      1.00000
     27     -10.3191      1.00000
     28     -10.3173      1.00000
     29     -10.3134      1.00000
     30     -10.3113      1.00000
     31     -10.3094      1.00000
     32     -10.3055      1.00000
     33     -10.2877      1.00000
     34     -10.2799      1.00000
[...]
 l=   3
     0.0000000     0.0000000     0.0000000     0.0000000     0.0000000     0.0000000     0.0000000
     0.0000000     0.0000000     0.0000000     0.0000000     0.0000000     0.0000000     0.0000000
     0.0000000     0.0000000     0.0000000     0.0000000     0.0000000     0.0000000     0.0000000
     0.0000000     0.0000000     0.0000000     0.0000000     0.0000000     0.0000000     0.0000000
     0.0000000     0.0000000     0.0000000     0.0000000     0.0000000     0.0000000     0.0000000
     0.0000000     0.0000000     0.0000000     0.0000000     0.0000000     0.0000000     0.0000000
     0.0000000     0.0000000     0.0000000     0.0000000     0.0000000     0.0000000     0.0000000

 Ion:   61  E_soc:     -0.1789507
 l=   1
     0.0000000    -0.0297226    -0.0298059
    -0.0297226     0.0000000    -0.0297202
    -0.0298059    -0.0297202     0.0000000
 l=   2
    -0.0000000    -0.0000280     0.0000000    -0.0000271    -0.0000512
    -0.0000280    -0.0000000    -0.0000350    -0.0000285    -0.0000114
     0.0000000    -0.0000350     0.0000000    -0.0000343     0.0000000
    -0.0000271    -0.0000285    -0.0000343    -0.0000000    -0.0000113
    -0.0000512    -0.0000114     0.0000000    -0.0000113    -0.0000000
 l=   3
     0.0000000     0.0000000     0.0000000     0.0000000     0.0000000     0.0000000     0.0000000
     0.0000000     0.0000000     0.0000000     0.0000000     0.0000000     0.0000000     0.0000000
     0.0000000     0.0000000     0.0000000     0.0000000     0.0000000     0.0000000     0.0000000
     0.0000000     0.0000000     0.0000000     0.0000000     0.0000000     0.0000000     0.0000000
     0.0000000     0.0000000     0.0000000     0.0000000     0.0000000     0.0000000     0.0000000
     0.0000000     0.0000000     0.0000000     0.0000000     0.0000000     0.0000000     0.0000000
     0.0000000     0.0000000     0.0000000     0.0000000     0.0000000     0.0000000     0.0000000

 Ion:   62  E_soc:     -0.1789327
 l=   1
     0.0000000    -0.0298020    -0.0297183
    -0.0298020     0.0000000    -0.0297194
    -0.0297183    -0.0297194     0.0000000
 l=   2
    -0.0000000    -0.0000279     0.0000000    -0.0000284    -0.0000465
    -0.0000279    -0.0000000    -0.0000375    -0.0000271    -0.0000136
     0.0000000    -0.0000375     0.0000000    -0.0000341     0.0000000
    -0.0000284    -0.0000271    -0.0000341    -0.0000000    -0.0000115
    -0.0000465    -0.0000136     0.0000000    -0.0000115    -0.0000000
 l=   3
     0.0000000     0.0000000     0.0000000     0.0000000     0.0000000     0.0000000     0.0000000
     0.0000000     0.0000000     0.0000000     0.0000000     0.0000000     0.0000000     0.0000000
     0.0000000     0.0000000     0.0000000     0.0000000     0.0000000     0.0000000     0.0000000
     0.0000000     0.0000000     0.0000000     0.0000000     0.0000000     0.0000000     0.0000000
     0.0000000     0.0000000     0.0000000     0.0000000     0.0000000     0.0000000     0.0000000
     0.0000000     0.0000000     0.0000000     0.0000000     0.0000000     0.0000000     0.0000000
     0.0000000     0.0000000     0.0000000     0.0000000     0.0000000     0.0000000     0.0000000

 Ion:   63  E_soc:     -0.1811535
 l=   1
     0.0000000    -0.0301639    -0.0301610
    -0.0301639     0.0000000    -0.0300559
    -0.0301610    -0.0300559     0.0000000
 l=   2
    -0.0000000    -0.0000251     0.0000000    -0.0000256    -0.0000399
    -0.0000251    -0.0000000    -0.0000303    -0.0000256    -0.0000096
     0.0000000    -0.0000303     0.0000000    -0.0000300     0.0000000
    -0.0000256    -0.0000256    -0.0000300    -0.0000000    -0.0000100
    -0.0000399    -0.0000096     0.0000000    -0.0000100     0.0000000
 l=   3
     0.0000000     0.0000000     0.0000000     0.0000000     0.0000000     0.0000000     0.0000000
     0.0000000     0.0000000     0.0000000     0.0000000     0.0000000     0.0000000     0.0000000
     0.0000000     0.0000000     0.0000000     0.0000000     0.0000000     0.0000000     0.0000000
     0.0000000     0.0000000     0.0000000     0.0000000     0.0000000     0.0000000     0.0000000
     0.0000000     0.0000000     0.0000000     0.0000000     0.0000000     0.0000000     0.0000000
     0.0000000     0.0000000     0.0000000     0.0000000     0.0000000     0.0000000     0.0000000
     0.0000000     0.0000000     0.0000000     0.0000000     0.0000000     0.0000000     0.0000000

 Ion:   64  E_soc:     -0.1789570
 l=   1
     0.0000000    -0.0298078    -0.0297273
    -0.0298078     0.0000000    -0.0297169
    -0.0297273    -0.0297169     0.0000000
 l=   2
    -0.0000000    -0.0000278     0.0000000    -0.0000285    -0.0000466
    -0.0000278    -0.0000000    -0.0000374    -0.0000271    -0.0000136
     0.0000000    -0.0000374     0.0000000    -0.0000341     0.0000000
    -0.0000285    -0.0000271    -0.0000341    -0.0000000    -0.0000115
    -0.0000466    -0.0000136     0.0000000    -0.0000115    -0.0000000
 l=   3
     0.0000000     0.0000000     0.0000000     0.0000000     0.0000000     0.0000000     0.0000000
     0.0000000     0.0000000     0.0000000     0.0000000     0.0000000     0.0000000     0.0000000
     0.0000000     0.0000000     0.0000000     0.0000000     0.0000000     0.0000000     0.0000000
     0.0000000     0.0000000     0.0000000     0.0000000     0.0000000     0.0000000     0.0000000
     0.0000000     0.0000000     0.0000000     0.0000000     0.0000000     0.0000000     0.0000000
     0.0000000     0.0000000     0.0000000     0.0000000     0.0000000     0.0000000     0.0000000
     0.0000000     0.0000000     0.0000000     0.0000000     0.0000000     0.0000000     0.0000000

 Ion:   65  E_soc:     -0.1811572
 l=   1
     0.0000000    -0.0301666    -0.0301604
    -0.0301666     0.0000000    -0.0300554
    -0.0301604    -0.0300554     0.0000000
 l=   2
    -0.0000000    -0.0000252     0.0000000    -0.0000256    -0.0000399
    -0.0000252    -0.0000000    -0.0000303    -0.0000256    -0.0000097
     0.0000000    -0.0000303     0.0000000    -0.0000299     0.0000000
    -0.0000256    -0.0000256    -0.0000299    -0.0000000    -0.0000100
    -0.0000399    -0.0000097     0.0000000    -0.0000100     0.0000000
 l=   3
     0.0000000     0.0000000     0.0000000     0.0000000     0.0000000     0.0000000     0.0000000
     0.0000000     0.0000000     0.0000000     0.0000000     0.0000000     0.0000000     0.0000000
     0.0000000     0.0000000     0.0000000     0.0000000     0.0000000     0.0000000     0.0000000
     0.0000000     0.0000000     0.0000000     0.0000000     0.0000000     0.0000000     0.0000000
     0.0000000     0.0000000     0.0000000     0.0000000     0.0000000     0.0000000     0.0000000
     0.0000000     0.0000000     0.0000000     0.0000000     0.0000000     0.0000000     0.0000000
     0.0000000     0.0000000     0.0000000     0.0000000     0.0000000     0.0000000     0.0000000



 total charge     

# of ion       s       p       d       tot
------------------------------------------
    1        0.470   0.313   9.529  10.312
    2        0.477   0.325   9.528  10.330
    3        0.477   0.325   9.528  10.330
    4        0.476   0.326   9.526  10.328
    5        0.477   0.325   9.528  10.330
    6        0.476   0.326   9.526  10.328
    7        0.476   0.326   9.526  10.328
    8        0.476   0.322   9.526  10.324
    9        0.477   0.325   9.528  10.330
   10        0.470   0.313   9.529  10.312
   11        0.476   0.326   9.527  10.329
   12        0.477   0.325   9.528  10.330
   13        0.476   0.326   9.527  10.329
   14        0.477   0.325   9.528  10.330
   15        0.476   0.322   9.526  10.324
   16        0.476   0.326   9.527  10.329
   17        0.476   0.325   9.527  10.328
   18        0.477   0.325   9.528  10.330
   19        0.476   0.322   9.526  10.324
   20        0.476   0.326   9.527  10.329
   21        0.477   0.325   9.528  10.330
   22        0.470   0.313   9.529  10.312
   23        0.476   0.326   9.527  10.328
   24        0.477   0.325   9.528  10.330
   25        0.477   0.325   9.528  10.330
   26        0.476   0.326   9.526  10.328
   27        0.476   0.326   9.527  10.329
   28        0.476   0.322   9.526  10.324
   29        0.470   0.313   9.529  10.312
   30        0.477   0.325   9.528  10.330
   31        0.477   0.325   9.528  10.330
   32        0.476   0.326   9.526  10.328
   33        0.692   0.193   9.507  10.391
   34        1.309   2.098   0.022   3.429
   35        1.322   2.067   0.022   3.411
   36        1.309   2.094   0.022   3.424
   37        1.309   2.098   0.022   3.429
   38        1.309   2.098   0.022   3.429
   39        1.322   2.067   0.022   3.411
   40        1.309   2.094   0.022   3.424
   41        1.309   2.098   0.022   3.429
   42        1.309   2.093   0.021   3.423
   43        1.310   2.095   0.022   3.428
   44        1.310   2.096   0.022   3.428
   45        1.309   2.093   0.021   3.423
   46        1.310   2.095   0.022   3.428
   47        1.309   2.093   0.021   3.423
   48        1.309   2.093   0.021   3.423
   49        1.310   2.095   0.022   3.428
   50        1.309   2.098   0.022   3.429
   51        1.309   2.098   0.022   3.429
   52        1.309   2.094   0.022   3.424
   53        1.309   2.094   0.022   3.424
   54        1.322   2.067   0.022   3.411
   55        1.322   2.067   0.022   3.411
   56        1.309   2.098   0.022   3.429
   57        1.309   2.098   0.022   3.429
   58        1.309   2.094   0.022   3.424
   59        1.309   2.098   0.022   3.429
   60        1.309   2.094   0.022   3.424
   61        1.309   2.098   0.022   3.429
   62        1.309   2.098   0.022   3.429
   63        1.322   2.067   0.022   3.411
   64        1.309   2.098   0.022   3.429
   65        1.322   2.067   0.022   3.411
--------------------------------------------------
tot         57.886  77.431 315.079 450.396



 magnetization (x)

# of ion       s       p       d       tot
------------------------------------------
    1       -0.001  -0.001   0.001  -0.001
    2       -0.001  -0.001   0.000  -0.001
    3       -0.001  -0.001   0.000  -0.001
    4       -0.001  -0.001   0.000  -0.001
    5       -0.001  -0.001   0.000  -0.001
    6       -0.001  -0.001   0.000  -0.001
    7       -0.001  -0.001   0.000  -0.001
    8       -0.001  -0.001   0.000  -0.001
    9       -0.001  -0.001   0.000  -0.001
   10       -0.001  -0.001   0.001  -0.001
   11       -0.001  -0.001   0.000  -0.001
   12       -0.001  -0.001   0.000  -0.001
   13       -0.001  -0.001   0.000  -0.001
   14       -0.001  -0.001   0.000  -0.001
   15       -0.001  -0.001   0.000  -0.001
   16       -0.001  -0.001   0.000  -0.001
   17       -0.001  -0.001   0.000  -0.001
   18       -0.001  -0.001   0.000  -0.001
   19       -0.001  -0.001   0.000  -0.001
   20       -0.001  -0.001   0.000  -0.001
   21       -0.001  -0.001   0.000  -0.001
   22       -0.001  -0.001   0.001  -0.001
   23       -0.001  -0.001   0.000  -0.001
   24       -0.001  -0.001   0.000  -0.001
   25       -0.001  -0.001   0.000  -0.001
   26       -0.001  -0.001   0.000  -0.001
   27       -0.001  -0.001   0.000  -0.001
   28       -0.001  -0.001   0.000  -0.001
   29       -0.001  -0.001   0.001  -0.001
   30       -0.001  -0.001   0.000  -0.001
   31       -0.001  -0.001   0.000  -0.001
   32       -0.001  -0.001   0.000  -0.001
   33        0.009  -0.000   0.000   0.009
   34        0.001   0.004  -0.000   0.004
   35        0.001   0.005  -0.000   0.006
   36        0.001   0.003  -0.000   0.004
   37        0.001   0.004  -0.000   0.004
   38        0.001   0.004  -0.000   0.004
   39        0.001   0.005  -0.000   0.006
   40        0.001   0.003  -0.000   0.004
   41        0.001   0.004  -0.000   0.004
   42        0.001   0.003  -0.000   0.004
   43        0.001   0.003  -0.000   0.004
   44        0.001   0.003  -0.000   0.004
   45        0.001   0.003  -0.000   0.004
   46        0.001   0.003  -0.000   0.004
   47        0.001   0.003  -0.000   0.004
   48        0.001   0.003  -0.000   0.004
   49        0.001   0.003  -0.000   0.004
   50        0.001   0.004  -0.000   0.004
   51        0.001   0.004  -0.000   0.004
   52        0.001   0.003  -0.000   0.004
   53        0.001   0.003  -0.000   0.004
   54        0.001   0.005  -0.000   0.006
   55        0.001   0.005  -0.000   0.006
   56        0.001   0.004  -0.000   0.004
   57        0.001   0.004  -0.000   0.004
   58        0.001   0.003  -0.000   0.004
   59        0.001   0.004  -0.000   0.004
   60        0.001   0.003  -0.000   0.004
   61        0.001   0.004  -0.000   0.004
   62        0.001   0.004  -0.000   0.004
   63        0.001   0.005  -0.000   0.006
   64        0.001   0.004  -0.000   0.004
   65        0.001   0.005  -0.000   0.006
--------------------------------------------------
tot          0.004   0.098   0.013   0.115



 magnetization (y)

# of ion       s       p       d       tot
------------------------------------------
    1       -0.001  -0.001   0.001  -0.001
    2       -0.001  -0.001   0.000  -0.001
    3       -0.001  -0.001   0.000  -0.001
    4       -0.001  -0.001   0.000  -0.001
    5       -0.001  -0.001   0.000  -0.001
    6       -0.001  -0.001   0.000  -0.001
    7       -0.001  -0.001   0.000  -0.001
    8       -0.001  -0.001   0.000  -0.001
    9       -0.001  -0.001   0.000  -0.001
   10       -0.001  -0.001   0.001  -0.001
   11       -0.001  -0.001   0.000  -0.001
   12       -0.001  -0.001   0.000  -0.001
   13       -0.001  -0.001   0.000  -0.001
   14       -0.001  -0.001   0.000  -0.001
   15       -0.001  -0.001   0.000  -0.001
   16       -0.001  -0.001   0.000  -0.001
   17       -0.001  -0.001   0.000  -0.001
   18       -0.001  -0.001   0.000  -0.001
   19       -0.001  -0.001   0.000  -0.001
   20       -0.001  -0.001   0.000  -0.001
   21       -0.001  -0.001   0.000  -0.001
   22       -0.001  -0.001   0.001  -0.001
   23       -0.001  -0.001   0.000  -0.001
   24       -0.001  -0.001   0.000  -0.001
   25       -0.001  -0.001   0.000  -0.001
   26       -0.001  -0.001   0.000  -0.001
   27       -0.001  -0.001   0.000  -0.001
   28       -0.001  -0.001   0.000  -0.001
   29       -0.001  -0.001   0.001  -0.001
   30       -0.001  -0.001   0.000  -0.001
   31       -0.001  -0.001   0.000  -0.001
   32       -0.001  -0.001   0.000  -0.001
   33        0.010  -0.000   0.000   0.009
   34        0.001   0.004  -0.000   0.004
   35        0.001   0.005  -0.000   0.006
   36        0.001   0.003  -0.000   0.004
   37        0.001   0.004  -0.000   0.004
   38        0.001   0.004  -0.000   0.004
   39        0.001   0.005  -0.000   0.006
   40        0.001   0.003  -0.000   0.004
   41        0.001   0.004  -0.000   0.004
   42        0.001   0.003  -0.000   0.004
   43        0.001   0.003  -0.000   0.004
   44        0.001   0.003  -0.000   0.004
   45        0.001   0.003  -0.000   0.004
   46        0.001   0.004  -0.000   0.004
   47        0.001   0.003  -0.000   0.004
   48        0.001   0.003  -0.000   0.004
   49        0.001   0.003  -0.000   0.004
   50        0.001   0.004  -0.000   0.004
   51        0.001   0.004  -0.000   0.004
   52        0.001   0.003  -0.000   0.004
   53        0.001   0.003  -0.000   0.004
   54        0.001   0.005  -0.000   0.006
   55        0.001   0.005  -0.000   0.006
   56        0.001   0.004  -0.000   0.004
   57        0.001   0.004  -0.000   0.004
   58        0.001   0.003  -0.000   0.004
   59        0.001   0.004  -0.000   0.004
   60        0.001   0.003  -0.000   0.004
   61        0.001   0.004  -0.000   0.004
   62        0.001   0.004  -0.000   0.004
   63        0.001   0.005  -0.000   0.006
   64        0.001   0.004  -0.000   0.004
   65        0.001   0.005  -0.000   0.006
--------------------------------------------------
tot          0.005   0.098   0.013   0.117



 magnetization (z)

# of ion       s       p       d       tot
------------------------------------------
    1       -0.001  -0.001   0.001  -0.001
    2       -0.001  -0.001   0.000  -0.001
    3       -0.001  -0.001   0.000  -0.001
    4       -0.001  -0.001   0.000  -0.001
    5       -0.001  -0.001   0.000  -0.001
    6       -0.001  -0.001   0.000  -0.001
    7       -0.001  -0.001   0.000  -0.001
    8       -0.001  -0.001   0.000  -0.001
    9       -0.001  -0.001   0.000  -0.001
   10       -0.001  -0.001   0.001  -0.001
   11       -0.001  -0.001   0.000  -0.001
   12       -0.001  -0.001   0.000  -0.001
   13       -0.001  -0.001   0.000  -0.001
   14       -0.001  -0.001   0.000  -0.001
   15       -0.001  -0.001   0.000  -0.001
   16       -0.001  -0.001   0.000  -0.001
   17       -0.001  -0.001   0.000  -0.001
   18       -0.001  -0.001   0.000  -0.001
   19       -0.001  -0.001   0.000  -0.001
   20       -0.001  -0.001   0.000  -0.001
   21       -0.001  -0.001   0.000  -0.001
   22       -0.001  -0.001   0.001  -0.001
   23       -0.001  -0.001   0.000  -0.001
   24       -0.001  -0.001   0.000  -0.001
   25       -0.001  -0.001   0.000  -0.001
   26       -0.001  -0.001   0.000  -0.001
   27       -0.001  -0.001   0.000  -0.001
   28       -0.001  -0.001   0.000  -0.001
   29       -0.001  -0.001   0.001  -0.001
   30       -0.001  -0.001   0.000  -0.001
   31       -0.001  -0.001   0.000  -0.001
   32       -0.001  -0.001   0.000  -0.001
   33        0.009  -0.000   0.000   0.009
   34        0.001   0.004  -0.000   0.004
   35        0.001   0.005  -0.000   0.006
   36        0.001   0.003  -0.000   0.004
   37        0.001   0.004  -0.000   0.004
   38        0.001   0.004  -0.000   0.004
   39        0.001   0.005  -0.000   0.006
   40        0.001   0.003  -0.000   0.004
   41        0.001   0.004  -0.000   0.004
   42        0.001   0.003  -0.000   0.004
   43        0.001   0.003  -0.000   0.004
   44        0.001   0.004  -0.000   0.004
   45        0.001   0.003  -0.000   0.004
   46        0.001   0.003  -0.000   0.004
   47        0.001   0.003  -0.000   0.004
   48        0.001   0.003  -0.000   0.004
   49        0.001   0.003  -0.000   0.004
   50        0.001   0.004  -0.000   0.004
   51        0.001   0.004  -0.000   0.004
   52        0.001   0.003  -0.000   0.004
   53        0.001   0.003  -0.000   0.004
   54        0.001   0.005  -0.000   0.006
   55        0.001   0.005  -0.000   0.006
   56        0.001   0.004  -0.000   0.004
   57        0.001   0.004  -0.000   0.004
   58        0.001   0.003  -0.000   0.004
   59        0.001   0.004  -0.000   0.004
   60        0.001   0.003  -0.000   0.004
   61        0.001   0.004  -0.000   0.004
   62        0.001   0.004  -0.000   0.004
   63        0.001   0.005  -0.000   0.006
   64        0.001   0.004  -0.000   0.004
   65        0.001   0.005  -0.000   0.006
--------------------------------------------------
tot          0.004   0.098   0.014   0.116


 total amount of memory used by VASP MPI-rank0   220507. kBytes
=======================================================================

   base      :      30000. kBytes
   nonl-proj :      20438. kBytes
   fftplans  :      14677. kBytes
   grid      :      23003. kBytes
   one-center:        559. kBytes
   HF        :        129. kBytes
   nonlr-proj:      11281. kBytes
   wavefun   :     120420. kBytes

  
  
 General timing and accounting informations for this job:
 ========================================================
  
                  Total CPU time used (sec):     5613.290
                            User time (sec):     5594.144
                          System time (sec):       19.146
                         Elapsed time (sec):     5646.699
  
                   Maximum memory used (kb):      769192.
                   Average memory used (kb):           0.
  
                          Minor page faults:      2589108
                          Major page faults:            0
                 Voluntary context switches:        65091
