 vasp.5.4.4.18Apr17-6-g9f103f2a35 (build Nov 14 2020 21:33:54) complex           
 executed on        HPECrayEX-GNU date 2020.12.08  01:29:58
 running on 8192 total cores
 distrk:  each k-point on 4096 cores,    2 groups
 distr:  one band on NCORES_PER_BAND=   8 cores,  512 groups


--------------------------------------------------------------------------------------------------------


 INCAR:
 POTCAR:    PAW_PBE Cd 06Sep2000                  
 POTCAR:    PAW_PBE Te 08Apr2002                  

 ----------------------------------------------------------------------------- 
|                                                                             |
|           W    W    AA    RRRRR   N    N  II  N    N   GGGG   !!!           |
|           W    W   A  A   R    R  NN   N  II  NN   N  G    G  !!!           |
|           W    W  A    A  R    R  N N  N  II  N N  N  G       !!!           |
|           W WW W  AAAAAA  RRRRR   N  N N  II  N  N N  G  GGG   !            |
|           WW  WW  A    A  R   R   N   NN  II  N   NN  G    G                |
|           W    W  A    A  R    R  N    N  II  N    N   GGGG   !!!           |
|                                                                             |
|      For optimal performance we recommend to set                            |
|        NCORE= 4 - approx SQRT( number of cores)                             |
|      NCORE specifies how many cores store one orbital (NPAR=cpu/NCORE).     |
|      This setting can  greatly improve the performance of VASP for DFT.     |
|      The default,   NCORE=1            might be grossly inefficient         |
|      on modern multi-core architectures or massively parallel machines.     |
|      Do your own testing !!!!                                               |
|      Unfortunately you need to use the default for GW and RPA calculations. |
|      (for HF NCORE is supported but not extensively tested yet)             |
|                                                                             |
 ----------------------------------------------------------------------------- 


 ----------------------------------------------------------------------------- 
|                                                                             |
|           W    W    AA    RRRRR   N    N  II  N    N   GGGG   !!!           |
|           W    W   A  A   R    R  NN   N  II  NN   N  G    G  !!!           |
|           W    W  A    A  R    R  N N  N  II  N N  N  G       !!!           |
|           W WW W  AAAAAA  RRRRR   N  N N  II  N  N N  G  GGG   !            |
|           WW  WW  A    A  R   R   N   NN  II  N   NN  G    G                |
|           W    W  A    A  R    R  N    N  II  N    N   GGGG   !!!           |
|                                                                             |
|      You have enabled k-point parallelism (KPAR>1).                         |
|      This developmental code was originally  written by Paul Kent at ORNL,  |
|      and carefully double checked in Vienna.                                |
|      GW as well as linear response parallelism added by Martijn Marsman     |
|      and Georg Kresse.                                                      |
|      Carefully verify results versus KPAR=1.                                |
|      Report problems to Paul Kent and Vienna.                               |
|                                                                             |
 ----------------------------------------------------------------------------- 

 POTCAR:    PAW_PBE Cd 06Sep2000                  
   VRHFIN =Cd : s2 d10                                                          
   LEXCH  = PE                                                                  
   EATOM  =  1293.1815 eV,   95.0462 Ry                                         
                                                                                
   TITEL  = PAW_PBE Cd 06Sep2000                                                
   LULTRA =        F    use ultrasoft PP ?                                      
   IUNSCR =        1    unscreen: 0-lin 1-nonlin 2-no                           
   RPACOR =    2.000    partial core radius                                     
   POMASS =  112.411; ZVAL   =   12.000    mass and valenz                      
   RCORE  =    2.300    outmost cutoff radius                                   
   RWIGS  =    2.980; RWIGS  =    1.577    wigner-seitz radius (au A)           
   ENMAX  =  274.336; ENMIN  =  205.752 eV                                      
   RCLOC  =    2.054    cutoff for local pot                                    
   LCOR   =        T    correct aug charges                                     
   LPAW   =        T    paw PP                                                  
   EAUG   =  456.106                                                            
   DEXC   =    0.000                                                            
   RMAX   =    2.358    core radius for proj-oper                               
   RAUG   =    1.300    factor for augmentation sphere                          
   RDEP   =    2.450    radius for radial grids                                 
   RDEPT  =    1.955    core radius for aug-charge                              
                                                                                
   Atomic configuration                                                         
   12 entries                                                                   
     n  l   j            E        occ.                                          
     1  0  0.50    -26519.7817   2.0000                                         
     2  0  0.50     -3936.9612   2.0000                                         
     2  1  1.50     -3532.2230   6.0000                                         
     3  0  0.50      -733.7908   2.0000                                         
     3  1  1.50      -601.0792   6.0000                                         
     3  2  2.50      -393.5307  10.0000                                         
     4  0  0.50      -105.8977   2.0000                                         
     4  1  1.50       -66.9488   6.0000                                         
     4  2  2.50       -11.7331  10.0000                                         
     5  0  0.50        -5.6592   2.0000                                         
     5  1  0.50        -1.3606   0.0000                                         
     4  3  2.50        -1.3606   0.0000                                         
   Description                                                                  
     l       E           TYP  RCUT    TYP  RCUT                                 
     2    -11.7331479     23  2.300                                             
     2    -13.0937305     23  2.300                                             
     0     -5.6591502     23  2.300                                             
     0     -1.5561433     23  2.300                                             
     1     -2.7211652     23  2.300                                             
     1      8.3548275     23  2.300                                             
  local pseudopotential read in
  partial core-charges read in
  partial kinetic energy density read in
  atomic valenz-charges read in
  non local Contribution for L=           2  read in
    real space projection operators read in
  non local Contribution for L=           2  read in
    real space projection operators read in
  non local Contribution for L=           0  read in
    real space projection operators read in
  non local Contribution for L=           0  read in
    real space projection operators read in
  non local Contribution for L=           1  read in
    real space projection operators read in
  non local Contribution for L=           1  read in
    real space projection operators read in
    PAW grid and wavefunctions read in

   number of l-projection  operators is LMAX  =           6
   number of lm-projection operators is LMMAX =          18

 POTCAR:    PAW_PBE Te 08Apr2002                  
   VRHFIN =Te: s2p4                                                             
   LEXCH  = PE                                                                  
   EATOM  =   223.2721 eV,   16.4100 Ry                                         
                                                                                
   TITEL  = PAW_PBE Te 08Apr2002                                                
   LULTRA =        F    use ultrasoft PP ?                                      
   IUNSCR =        1    unscreen: 0-lin 1-nonlin 2-no                           
   RPACOR =    2.200    partial core radius                                     
   POMASS =  127.600; ZVAL   =    6.000    mass and valenz                      
   RCORE  =    2.300    outmost cutoff radius                                   
   RWIGS  =    2.900; RWIGS  =    1.535    wigner-seitz radius (au A)           
   ENMAX  =  174.982; ENMIN  =  131.236 eV                                      
   ICORE  =        3    local potential                                         
   LCOR   =        T    correct aug charges                                     
   LPAW   =        T    paw PP                                                  
   EAUG   =  368.792                                                            
   DEXC   =    0.000                                                            
   RMAX   =    2.345    core radius for proj-oper                               
   RAUG   =    1.300    factor for augmentation sphere                          
   RDEP   =    2.397    radius for radial grids                                 
   RDEPT  =    2.174    core radius for aug-charge                              
                                                                                
   Atomic configuration                                                         
   13 entries                                                                   
     n  l   j            E        occ.                                          
     1  0  0.50    -31621.2075   2.0000                                         
     2  0  0.50     -4848.7941   2.0000                                         
     2  1  1.50     -4352.1960   6.0000                                         
     3  0  0.50      -964.9612   2.0000                                         
     3  1  1.50      -803.6179   6.0000                                         
     3  2  2.50      -559.8710  10.0000                                         
     4  0  0.50      -164.3522   2.0000                                         
     4  1  1.50      -114.3756   6.0000                                         
     4  2  2.50       -41.6483  10.0000                                         
     5  0  0.50       -15.1072   2.0000                                         
     5  1  0.50        -5.9526   4.0000                                         
     5  2  1.50        -5.4423   0.0000                                         
     4  3  2.50        -5.4423   0.0000                                         
   Description                                                                  
     l       E           TYP  RCUT    TYP  RCUT                                 
     0    -15.1072389     23  2.300                                             
     0    -16.4678215     23  2.300                                             
     1     -5.9526306     23  2.300                                             
     1     -2.4873968     23  2.300                                             
     2     -5.4423304     23  2.300                                             
     3     -1.3605826     23  2.300                                             
  local pseudopotential read in
  partial core-charges read in
  partial kinetic energy density read in
  atomic valenz-charges read in
  non local Contribution for L=           0  read in
    real space projection operators read in
  non local Contribution for L=           0  read in
    real space projection operators read in
  non local Contribution for L=           1  read in
    real space projection operators read in
  non local Contribution for L=           1  read in
    real space projection operators read in
  non local Contribution for L=           2  read in
    real space projection operators read in
    PAW grid and wavefunctions read in

   number of l-projection  operators is LMAX  =           5
   number of lm-projection operators is LMMAX =          13


 ----------------------------------------------------------------------------- 
|                                                                             |
|  ADVICE TO THIS USER RUNNING 'VASP/VAMP'   (HEAR YOUR MASTER'S VOICE ...):  |
|                                                                             |
|      You have a (more or less) 'large supercell' and for larger cells       |
|      it might be more efficient to use real space projection opertators     |
|      So try LREAL= Auto  in the INCAR   file.                               |
|      Mind:          For very  accurate calculation you might also keep the  |
|      reciprocal projection scheme          (i.e. LREAL=.FALSE.)             |
|                                                                             |
 ----------------------------------------------------------------------------- 

  PAW_PBE Cd 06Sep2000                  :
 energy of atom  1       EATOM=-1293.1815
 kinetic energy error for atom=    0.0084 (will be added to EATOM!!)
  PAW_PBE Te 08Apr2002                  :
 energy of atom  2       EATOM= -223.2721
 kinetic energy error for atom=    0.0008 (will be added to EATOM!!)


 POSCAR: Cd33 Te32                               
  positions in direct lattice
  No initial velocities read in
 exchange correlation table for  LEXCH =        8
   RHO(1)=    0.500       N(1)  =     2000
   RHO(2)=  100.500       N(2)  =     4000



--------------------------------------------------------------------------------------------------------


 ion  position               nearest neighbor table
   1  0.004  0.996  0.004-  44 2.79  35 2.93  54 2.93  65 2.93  33 2.94
   2  0.001  0.999  0.497-  55 2.82  34 2.82  64 2.82  45 2.84
   3  0.001  0.503  0.001-  63 2.82  56 2.82  37 2.82  42 2.84
   4  1.000  0.501  0.499-  57 2.82  62 2.82  36 2.82  43 2.84
   5  0.497  0.999  0.001-  39 2.82  50 2.82  61 2.82  48 2.84
   6  0.499  0.000  0.499-  38 2.82  51 2.82  60 2.82  49 2.84
   7  0.499  0.501  1.000-  41 2.82  59 2.82  52 2.82  46 2.84
   8  0.501  0.499  0.501-  47 2.82  40 2.83  53 2.83  58 2.83
   9  0.001  0.251  0.253-  54 2.82  34 2.82  62 2.82  42 2.84
  10  0.004  0.254  0.746-  43 2.79  35 2.93  55 2.93  63 2.93  33 2.94
  11  1.000  0.749  0.251-  56 2.82  64 2.82  36 2.82  44 2.84
  12  0.001  0.747  0.749-  65 2.82  57 2.82  37 2.82  45 2.84
  13  0.499  0.250  0.251-  38 2.82  50 2.82  58 2.82  46 2.84
  14  0.497  0.251  0.749-  39 2.82  51 2.82  59 2.82  47 2.84
  15  0.501  0.751  0.249-  48 2.82  40 2.83  52 2.83  60 2.83
  16  0.499  0.749  0.750-  41 2.82  61 2.82  53 2.82  49 2.84
  17  0.251  0.000  0.251-  34 2.82  50 2.82  60 2.82  44 2.84
  18  0.253  0.999  0.749-  35 2.82  51 2.82  61 2.82  45 2.84
  19  0.249  0.499  0.249-  42 2.82  36 2.83  52 2.83  58 2.83
  20  0.251  0.501  0.750-  37 2.82  59 2.82  53 2.82  43 2.84
  21  0.749  0.999  0.253-  54 2.82  38 2.82  64 2.82  48 2.84
  22  0.746  0.996  0.746-  49 2.79  39 2.93  55 2.93  65 2.93  33 2.94
  23  0.750  0.501  0.251-  56 2.82  62 2.82  40 2.82  46 2.84
  24  0.749  0.503  0.749-  63 2.82  57 2.82  41 2.82  47 2.84
  25  0.253  0.251  0.001-  35 2.82  50 2.82  59 2.82  42 2.84
  26  0.251  0.250  0.499-  34 2.82  51 2.82  58 2.82  43 2.84
  27  0.251  0.749  1.000-  37 2.82  61 2.82  52 2.82  44 2.84
  28  0.249  0.751  0.501-  45 2.82  36 2.83  53 2.83  60 2.83
  29  0.746  0.254  0.004-  46 2.79  39 2.93  54 2.93  63 2.93  33 2.94
  30  0.749  0.251  0.497-  55 2.82  38 2.82  62 2.82  47 2.84
  31  0.749  0.747  0.001-  65 2.82  56 2.82  41 2.82  48 2.84
  32  0.750  0.749  0.499-  57 2.82  64 2.82  40 2.82  49 2.84
  33  0.875  0.125  0.875-   1 2.94  10 2.94  22 2.94  29 2.94  35 3.37  39 3.37  54 3.37  55 3.37
                            63 3.37  65 3.37
  34  0.127  0.125  0.375-  17 2.82  26 2.82   2 2.82   9 2.82
  35  0.133  0.125  0.875-  18 2.82  25 2.82  10 2.93   1 2.93  33 3.37
  36  0.126  0.625  0.375-   4 2.82  11 2.82  19 2.83  28 2.83
  37  0.127  0.625  0.875-  20 2.82  27 2.82   3 2.82  12 2.82
  38  0.623  0.125  0.375-  13 2.82   6 2.82  21 2.82  30 2.82
  39  0.617  0.125  0.875-  14 2.82   5 2.82  22 2.93  29 2.93  33 3.37
  40  0.624  0.625  0.375-  23 2.82  32 2.82   8 2.83  15 2.83
  41  0.623  0.625  0.875-   7 2.82  16 2.82  31 2.82  24 2.82
  42  0.125  0.375  0.125-  19 2.82   9 2.84  25 2.84   3 2.84
  43  0.127  0.377  0.623-  10 2.79   4 2.84  26 2.84  20 2.84
  44  0.127  0.873  0.127-   1 2.79  11 2.84  17 2.84  27 2.84
  45  0.125  0.875  0.625-  28 2.82  18 2.84   2 2.84  12 2.84
  46  0.623  0.377  0.127-  29 2.79  13 2.84  23 2.84   7 2.84
  47  0.625  0.375  0.625-   8 2.82  14 2.84  24 2.84  30 2.84
  48  0.625  0.875  0.125-  15 2.82  21 2.84   5 2.84  31 2.84
  49  0.623  0.873  0.623-  22 2.79  32 2.84   6 2.84  16 2.84
  50  0.375  0.125  0.127-  17 2.82  13 2.82   5 2.82  25 2.82
  51  0.375  0.125  0.623-   6 2.82  26 2.82  18 2.82  14 2.82
  52  0.375  0.625  0.126-   7 2.82  27 2.82  19 2.83  15 2.83
  53  0.375  0.625  0.624-  16 2.82  20 2.82   8 2.83  28 2.83
  54  0.875  0.125  0.133-   9 2.82  21 2.82   1 2.93  29 2.93  33 3.37
  55  0.875  0.125  0.617-  30 2.82   2 2.82  22 2.93  10 2.93  33 3.37
  56  0.875  0.625  0.127-  11 2.82  23 2.82   3 2.82  31 2.82
  57  0.875  0.625  0.623-   4 2.82  32 2.82  12 2.82  24 2.82
  58  0.375  0.376  0.375-  26 2.82  13 2.82  19 2.83   8 2.83
  59  0.375  0.377  0.875-   7 2.82  20 2.82  14 2.82  25 2.82
  60  0.375  0.874  0.375-   6 2.82  17 2.82  15 2.83  28 2.83
  61  0.375  0.873  0.875-  16 2.82  27 2.82   5 2.82  18 2.82
  62  0.875  0.377  0.375-   4 2.82  23 2.82   9 2.82  30 2.82
  63  0.875  0.383  0.875-  24 2.82   3 2.82  10 2.93  29 2.93  33 3.37
  64  0.875  0.873  0.375-  11 2.82  32 2.82   2 2.82  21 2.82
  65  0.875  0.867  0.875-  12 2.82  31 2.82   1 2.93  22 2.93  33 3.37


IMPORTANT INFORMATION: All symmetrisations will be switched off!
NOSYMM: (Re-)initialisation of all symmetry stuff for point group C_1.



 KPOINTS: Automatically generated mesh            
  k-points in reciprocal lattice
Space group operators:
 irot       det(A)        alpha          n_x          n_y          n_z        tau_x        tau_y        tau_z
    1     1.000000     0.000000     1.000000     0.000000     0.000000     0.000000     0.000000     0.000000

 ----------------------------------------------------------------------------- 
|                                                                             |
|           W    W    AA    RRRRR   N    N  II  N    N   GGGG   !!!           |
|           W    W   A  A   R    R  NN   N  II  NN   N  G    G  !!!           |
|           W    W  A    A  R    R  N N  N  II  N N  N  G       !!!           |
|           W WW W  AAAAAA  RRRRR   N  N N  II  N  N N  G  GGG   !            |
|           WW  WW  A    A  R   R   N   NN  II  N   NN  G    G                |
|           W    W  A    A  R    R  N    N  II  N    N   GGGG   !!!           |
|                                                                             |
|      Your generating k-point grid is not commensurate to the symmetry       |
|      of the lattice.  This can cause   slow convergence with respect        |
|      to k-points for HF type calculations                                   |
|      suggested SOLUTIONS:                                                   |
|       ) if not already the case, use automatic k-point generation           |
|       ) shift your grid to Gamma (G) (e.g. required for hex or fcc lattice) |
|                                                                             |
 ----------------------------------------------------------------------------- 

 
 Subroutine IBZKPT_HF returns following result:
 ==============================================
 
 Found      8 k-points in 1st BZ
 the following      8 k-points will be used (e.g. in the exchange kernel)
 Following reciprocal coordinates:   # in IRBZ
  0.000000  0.000000  0.000000    0.12500000   1 t-inv F
  0.500000  0.000000  0.000000    0.12500000   2 t-inv F
  0.000000  0.500000  0.000000    0.12500000   3 t-inv F
  0.500000  0.500000  0.000000    0.12500000   4 t-inv F
  0.000000  0.000000  0.500000    0.12500000   5 t-inv F
  0.500000  0.000000  0.500000    0.12500000   6 t-inv F
  0.000000  0.500000  0.500000    0.12500000   7 t-inv F
  0.500000  0.500000  0.500000    0.12500000   8 t-inv F


--------------------------------------------------------------------------------------------------------




 Dimension of arrays:
   k-points           NKPTS =      8   k-points in BZ     NKDIM =      8   number of bands    NBANDS=   1024
   number of dos      NEDOS =   2000   number of ions     NIONS =     65
   non local maximal  LDIM  =      6   non local SUM 2l+1 LMDIM =     18
   total plane-waves  NPLWV = 884736
   max r-space proj   IRMAX =      1   max aug-charges    IRDMAX= 183854
   dimension x,y,z NGX =    96 NGY =   96 NGZ =   96
   dimension x,y,z NGXF=   192 NGYF=  192 NGZF=  192
   support grid    NGXF=   384 NGYF=  384 NGZF=  384
   ions per type =              33  32
   NGX,Y,Z   is equivalent  to a cutoff of  12.20, 12.20, 12.20 a.u.
   NGXF,Y,Z  is equivalent  to a cutoff of  24.39, 24.39, 24.39 a.u.

 SYSTEM =  unknown system                          
 POSCAR =  Cd33 Te32                               

 Startparameter for this run:
   NWRITE =      2    write-flag & timer
   PREC   = accura    normal or accurate (medium, high low for compatibility)
   ISTART =      0    job   : 0-new  1-cont  2-samecut
   ICHARG =      1    charge: 1-file 2-atom 10-const
   ISPIN  =      1    spin polarized calculation?
   LNONCOLLINEAR =      T non collinear calculations
   LSORBIT =      T    spin-orbit coupling
   INIWAV =      1    electr: 0-lowe 1-rand  2-diag
   LASPH  =      T    aspherical Exc in radial PAW
   METAGGA=      F    non-selfconsistent MetaGGA calc.

 Electronic Relaxation 1
   ENCUT  =  450.0 eV  33.07 Ry    5.75 a.u.  22.64 22.64 22.64*2*pi/ulx,y,z
   ENINI  =  450.0     initial cutoff
   ENAUG  =  456.1 eV  augmentation charge cutoff
   NELM   =      6;   NELMIN=  2; NELMDL= -5     # of ELM steps 
   EDIFF  = 0.1E-05   stopping-criterion for ELM
   LREAL  =      F    real-space projection
   NLSPLINE    = F    spline interpolate recip. space projectors
   LCOMPAT=      F    compatible to vasp.4.4
   GGA_COMPAT  = T    GGA compatible to vasp.4.4-vasp.4.6
   LMAXPAW     = -100 max onsite density
   LMAXMIX     =    2 max onsite mixed and CHGCAR
   VOSKOWN=      0    Vosko Wilk Nusair interpolation
   ROPT   =    0.00000   0.00000
 Ionic relaxation
   EDIFFG = -.1E-01   stopping-criterion for IOM
   NSW    =      0    number of steps for IOM
   NBLOCK =      1;   KBLOCK =      1    inner block; outer block 
   IBRION =     -1    ionic relax: 0-MD 1-quasi-New 2-CG
   NFREE  =      0    steps in history (QN), initial steepest desc. (CG)
   ISIF   =      2    stress and relaxation
   IWAVPR =     10    prediction:  0-non 1-charg 2-wave 3-comb
   ISYM   =      0    0-nonsym 1-usesym 2-fastsym
   LCORR  =      T    Harris-Foulkes like correction to forces

   POTIM  = 0.5000    time-step for ionic-motion
   TEIN   =    0.0    initial temperature
   TEBEG  =    0.0;   TEEND  =   0.0 temperature during run
   SMASS  =  -3.00    Nose mass-parameter (am)
   estimated Nose-frequenzy (Omega)   =  0.10E-29 period in steps =****** mass=  -0.391E-26a.u.
   SCALEE = 1.0000    scale energy and forces
   NPACO  =    256;   APACO  = 16.0  distance and # of slots for P.C.
   PSTRESS=    0.0 pullay stress

  Mass of Ions in am
   POMASS = 112.41127.60
  Ionic Valenz
   ZVAL   =  12.00  6.00
  Atomic Wigner-Seitz radii
   RWIGS  =  -1.00 -1.00
  virtual crystal weights 
   VCA    =   1.00  1.00
   NELECT =     588.0000    total number of electrons
   NUPDOWN=      -1.0000    fix difference up-down

 DOS related values:
   EMIN   =  10.00;   EMAX   =-10.00  energy-range for DOS
   EFERMI =   0.00
   ISMEAR =     0;   SIGMA  =   0.05  broadening in eV -4-tet -1-fermi 0-gaus

 Electronic relaxation 2 (details)
   IALGO  =     58    algorithm
   LDIAG  =      T    sub-space diagonalisation (order eigenvalues)
   LSUBROT=      F    optimize rotation matrix (better conditioning)
   TURBO    =      0    0=normal 1=particle mesh
   IRESTART =      0    0=no restart 2=restart with 2 vectors
   NREBOOT  =      0    no. of reboots
   NMIN     =      0    reboot dimension
   EREF     =   0.00    reference energy to select bands
   IMIX   =      4    mixing-type and parameters
     AMIX     =   0.40;   BMIX     =  1.00
     AMIX_MAG =   1.60;   BMIX_MAG =  1.00
     AMIN     =   0.10
     WC   =   100.;   INIMIX=   1;  MIXPRE=   1;  MAXMIX= -45

 Intra band minimization:
   WEIMIN = 0.0000     energy-eigenvalue tresh-hold
   EBREAK =  0.24E-09  absolut break condition
   DEPER  =   0.30     relativ break condition  

   TIME   =   0.40     timestep for ELM

  volume/ion in A,a.u.               =      34.48       232.69
  Fermi-wavevector in a.u.,A,eV,Ry     =   1.048017  1.980464 14.943809  1.098339
  Thomas-Fermi vector in A             =   2.182921

 Write flags
   LWAVE        =      T    write WAVECAR
   LDOWNSAMPLE  =      F    k-point downsampling of WAVECAR
   LCHARG       =      T    write CHGCAR
   LVTOT        =      F    write LOCPOT, total local potential
   LVHAR        =      T    write LOCPOT, Hartree potential only
   LELF         =      F    write electronic localiz. function (ELF)
   LORBIT       =     11    0 simple, 1 ext, 2 COOP (PROOUT), +10 PAW based schemes


 Dipole corrections
   LMONO  =      F    monopole corrections only (constant potential shift)
   LDIPOL =      F    correct potential (dipole corrections)
   IDIPOL =      0    1-x, 2-y, 3-z, 4-all directions 
   EPSILON=  1.0000000 bulk dielectric constant

 Exchange correlation treatment:
   GGA     =    --    GGA type
   LEXCH   =     8    internal setting for exchange type
   VOSKOWN=      0    Vosko Wilk Nusair interpolation
   EXXOEP  =     0    0=HF, 1=EXX-LHF (local Hartree Fock) 2=EXX OEP
   LHFCALC =     T    Hartree Fock is set to
   LSYMGRAD=     F    symmetrize gradient (conserves proper symmetry)
   PRECFOCK=fast      Normal, Fast or Accurate (Low or Medium for compatibility)
   LRHFCALC=     F    long range Hartree Fock
   LRSCOR  =     F    long range correlation only (use DFT for short range part)
   LTHOMAS =     F    Thomas Fermi screening in HF
   LMODELHF=     F    short range full HF, long range fraction AEXX
   ENCUT4O =  -1.0   cutoff for four orbital integrals eV
   LMAXFOCK=     4    L truncation for augmentation on plane wave grid
   LMAXFOCKAE=  -1    L truncation for all-electron charge restoration on plane wave grid
   NMAXFOCKAE=   1    number of basis functions for all-electron charge restoration
   LFOCKAEDFT=     F  apply the AE augmentation even for DFT
   NKREDX  =     1    reduce k-point grid by
   NKREDY  =     1    reduce k-point grid by
   NKREDZ  =     1    reduce k-point grid by
   SHIFTRED=     F    shift reduced grid of Gamma
   HFKIDENT=     F    idential grid for each k-point
   ODDONLY =     F    use only odd q-grid points
   EVENONLY=     F    use only even q-grid points
   HFALPHA =   -1.0000 decay constant for conv. correction
   MCALPHA =    0.0000 extent of test-charge in conv. correction in multipole expansion
   AEXX    =    0.2500 exact exchange contribution
   HFSCREEN=    0.2000 screening length (either q_TF or 0.3 A-1)
   HFSCREENC=   0.2000 screening length for correlation (either q_TF or 0.3 A-1)
   HFRCUT  =    0.0000 spherical cutoff for potential kernel
   ALDAX   =    0.7500 LDA exchange part
   AGGAX   =    0.7500 GGA exchange part
   ALDAC   =    1.0000 LDA correlation
   AGGAC   =    1.0000 GGA correlation
   ENCUTFOCK=  -1.0 apply spherical cutoff to Coloumb kernel
   NBANDSGWLOW=     1    first orbital included in HF term
   NBLOCK_FOCK=    64    blocking factor in FOCK_ACC
 Linear response parameters
   LEPSILON=     F    determine dielectric tensor
   LRPA    =     F    only Hartree local field effects (RPA)
   LNABLA  =     F    use nabla operator in PAW spheres
   LVEL    =     F    velocity operator in full k-point grid
   LINTERFAST=   F  fast interpolation
   KINTER  =     0    interpolate to denser k-point grid
   CSHIFT  =0.1000    complex shift for real part using Kramers Kronig
   OMEGAMAX=  -1.0    maximum frequency
   DEG_THRESHOLD= 0.2000000E-02 threshold for treating states as degnerate
   RTIME   =   -0.100 relaxation time in fs
  (WPLASMAI=    0.000 imaginary part of plasma frequency in eV, 0.658/RTIME)
   DFIELD  = 0.0000000 0.0000000 0.0000000 field for delta impulse in time

 Orbital magnetization related:
   ORBITALMAG=     F  switch on orbital magnetization
   LCHIMAG   =     F  perturbation theory with respect to B field
   DQ        =  0.001000  dq finite difference perturbation B field
   LLRAUG    =     F  two centre corrections for induced B field



--------------------------------------------------------------------------------------------------------


 Static calculation
 charge density and potential will be updated during run
 non collinear spin polarized calculation
 Conjugate gradient for all bands (Freysoldt, et al. PRB 79, 241103 (2009))
 preconditioned conjugated gradient                                        
 perform sub-space diagonalisation
    before iterative eigenvector-optimisation
 modified Broyden-mixing scheme, WC =      100.0
 initial mixing is a Kerker type mixing with AMIX =  0.4000 and BMIX =      1.0000
 Hartree-type preconditioning will be used
 using additional bands          730
 reciprocal scheme for non local part
 use partial core corrections
 no Harris-corrections to forces 
 use gradient corrections 
 use of overlap-Matrix (Vanderbilt PP)
 Gauss-broadening in eV      SIGMA  =   0.05


--------------------------------------------------------------------------------------------------------


  energy-cutoff  :      450.00
  volume of cell :     2241.29
      direct lattice vectors                 reciprocal lattice vectors
    13.086768000  0.000000000  0.000000000     0.076413061  0.000000000  0.000000000
     0.000000000 13.086768000  0.000000000     0.000000000  0.076413061  0.000000000
     0.000000000  0.000000000 13.086768000     0.000000000  0.000000000  0.076413061

  length of vectors
    13.086768000 13.086768000 13.086768000     0.076413061  0.076413061  0.076413061



 k-points in units of 2pi/SCALE and weight: Automatically generated mesh            
   0.00000000  0.00000000  0.00000000       0.125
   0.03820653  0.00000000  0.00000000       0.125
   0.00000000  0.03820653  0.00000000       0.125
   0.03820653  0.03820653  0.00000000       0.125
   0.00000000  0.00000000  0.03820653       0.125
   0.03820653  0.00000000  0.03820653       0.125
   0.00000000  0.03820653  0.03820653       0.125
   0.03820653  0.03820653  0.03820653       0.125

 k-points in reciprocal lattice and weights: Automatically generated mesh            
   0.00000000  0.00000000  0.00000000       0.125
   0.50000000  0.00000000  0.00000000       0.125
   0.00000000  0.50000000  0.00000000       0.125
   0.50000000  0.50000000  0.00000000       0.125
   0.00000000  0.00000000  0.50000000       0.125
   0.50000000  0.00000000  0.50000000       0.125
   0.00000000  0.50000000  0.50000000       0.125
   0.50000000  0.50000000  0.50000000       0.125

 position of ions in fractional coordinates (direct lattice) 
   0.00448500  0.99551500  0.00448500
   0.00124700  0.99875300  0.49695900
   0.00124700  0.50304100  0.00124700
   0.99962500  0.50121800  0.49878200
   0.49695900  0.99875300  0.00124700
   0.49878100  0.00037500  0.49878100
   0.49878100  0.50121900  0.99962500
   0.50052800  0.49947200  0.50052800
   0.00124700  0.25124700  0.25304000
   0.00448600  0.25448500  0.74551500
   0.99962500  0.74878200  0.25121800
   0.00124700  0.74695900  0.74875300
   0.49878200  0.24962500  0.25121900
   0.49696000  0.25124700  0.74875300
   0.50052800  0.75052800  0.24947200
   0.49878100  0.74878100  0.75037500
   0.25121900  0.00037500  0.25121900
   0.25304000  0.99875300  0.74875300
   0.24947200  0.49947200  0.24947200
   0.25121900  0.50121900  0.75037500
   0.74875300  0.99875300  0.25304000
   0.74551400  0.99551500  0.74551500
   0.75037500  0.50121900  0.25121900
   0.74875300  0.50304000  0.74875300
   0.25304000  0.25124700  0.00124700
   0.25121900  0.24962500  0.49878100
   0.25121900  0.74878100  0.99962500
   0.24947200  0.75052800  0.50052800
   0.74551400  0.25448500  0.00448500
   0.74875300  0.25124700  0.49696000
   0.74875300  0.74695900  0.00124700
   0.75037500  0.74878200  0.49878200
   0.87500000  0.12500000  0.87500000
   0.12665600  0.12500000  0.37500000
   0.13277900  0.12500000  0.87500000
   0.12589200  0.62500000  0.37500000
   0.12665600  0.62500000  0.87500000
   0.62334400  0.12500000  0.37500000
   0.61722100  0.12500000  0.87500000
   0.62410800  0.62500000  0.37500000
   0.62334400  0.62500000  0.87500000
   0.12484800  0.37484800  0.12484800
   0.12748800  0.37748800  0.62251200
   0.12748800  0.87251200  0.12748800
   0.12484800  0.87515200  0.62515200
   0.62251200  0.37748800  0.12748800
   0.62515200  0.37484800  0.62515200
   0.62515200  0.87515200  0.12484800
   0.62251200  0.87251200  0.62251200
   0.37500000  0.12500000  0.12665600
   0.37500000  0.12500000  0.62334400
   0.37500000  0.62500000  0.12589200
   0.37500000  0.62500000  0.62410800
   0.87500000  0.12500000  0.13277900
   0.87500000  0.12500000  0.61722100
   0.87500000  0.62500000  0.12665600
   0.87500000  0.62500000  0.62334400
   0.37500000  0.37589200  0.37500000
   0.37500000  0.37665600  0.87500000
   0.37500000  0.87410800  0.37500000
   0.37500000  0.87334400  0.87500000
   0.87500000  0.37665600  0.37500000
   0.87500000  0.38277900  0.87500000
   0.87500000  0.87334400  0.37500000
   0.87500000  0.86722100  0.87500000

 position of ions in cartesian coordinates  (Angst):
   0.05869415 13.02807385  0.05869415
   0.01631920 13.07044880  6.50358714
   0.01631920  6.58318086  0.01631920
  13.08186046  6.55932368  6.52744432
   6.50358714 13.07044880  0.01631920
   6.52743123  0.00490754  6.52743123
   6.52743123  6.55933677 13.08186046
   6.55029381  6.53647419  6.55029381
   0.01631920  3.28801120  3.31147577
   0.05870724  3.33038615  9.75638185
  13.08186046  9.79913632  3.28763168
   0.01631920  9.77527914  9.79875680
   6.52744432  3.26678446  3.28764477
   6.50360023  3.28801120  9.79875680
   6.55029381  9.82198581  3.26478219
   6.52743123  9.79912323  9.81998354
   3.28764477  0.00490754  3.28764477
   3.31147577 13.07044880  9.79875680
   3.26478219  6.53647419  3.26478219
   3.28764477  6.55933677  9.81998354
   9.79875680 13.07044880  3.31147577
   9.75636876 13.02807385  9.75638185
   9.81998354  6.55933677  3.28764477
   9.79875680  6.58316777  9.79875680
   3.31147577  3.28801120  0.01631920
   3.28764477  3.26678446  6.52743123
   3.28764477  9.79912323 13.08186046
   3.26478219  9.82198581  6.55029381
   9.75636876  3.33038615  0.05869415
   9.79875680  3.28801120  6.50360023
   9.79875680  9.77527914  0.01631920
   9.81998354  9.79913632  6.52744432
  11.45092200  1.63584600 11.45092200
   1.65751769  1.63584600  4.90753800
   1.73764797  1.63584600 11.45092200
   1.64751940  8.17923000  4.90753800
   1.65751769  8.17923000 11.45092200
   8.15755831  1.63584600  4.90753800
   8.07742803  1.63584600 11.45092200
   8.16755660  8.17923000  4.90753800
   8.15755831  8.17923000 11.45092200
   1.63385681  4.90554881  1.63385681
   1.66840588  4.94009788  8.14667012
   1.66840588 11.41836212  1.66840588
   1.63385681 11.45291119  8.18121919
   8.14667012  4.94009788  1.66840588
   8.18121919  4.90554881  8.18121919
   8.18121919 11.45291119  1.63385681
   8.14667012 11.41836212  8.14667012
   4.90753800  1.63584600  1.65751769
   4.90753800  1.63584600  8.15755831
   4.90753800  8.17923000  1.64751940
   4.90753800  8.17923000  8.16755660
  11.45092200  1.63584600  1.73764797
  11.45092200  1.63584600  8.07742803
  11.45092200  8.17923000  1.65751769
  11.45092200  8.17923000  8.15755831
   4.90753800  4.91921140  4.90753800
   4.90753800  4.92920969 11.45092200
   4.90753800 11.43924860  4.90753800
   4.90753800 11.42925031 11.45092200
  11.45092200  4.92920969  4.90753800
  11.45092200  5.00933997 11.45092200
  11.45092200 11.42925031  4.90753800
  11.45092200 11.34912003 11.45092200

 Euler angles ALPHA=     0.0000000  BETA=     0.0000000

 transformation matrix from SAXIS to cartesian coordinates
 ---------------------------------------------------------
     1.0000000 m_x    -0.0000000 m_y     0.0000000 m_z
     0.0000000 m_x     1.0000000 m_y     0.0000000 m_z
    -0.0000000 m_x     0.0000000 m_y     1.0000000 m_z

 transformation matrix from cartesian coordinates to SAXIS
 ---------------------------------------------------------
     1.0000000 m_x     0.0000000 m_y    -0.0000000 m_z
    -0.0000000 m_x     1.0000000 m_y     0.0000000 m_z
     0.0000000 m_x     0.0000000 m_y     1.0000000 m_z




--------------------------------------------------------------------------------------------------------


 k-point  1 :   0.0000 0.0000 0.0000  plane waves:   97002
 k-point  2 :   0.5000 0.0000 0.0000  plane waves:   97356
 k-point  3 :   0.0000 0.5000 0.0000  plane waves:   97356
 k-point  4 :   0.5000 0.5000 0.0000  plane waves:   96960
 k-point  5 :   0.0000 0.0000 0.5000  plane waves:   97356
 k-point  6 :   0.5000 0.0000 0.5000  plane waves:   96960
 k-point  7 :   0.0000 0.5000 0.5000  plane waves:   96960
 k-point  8 :   0.5000 0.5000 0.5000  plane waves:   96832

 maximum and minimum number of plane-waves per node :     12212    12064

 maximum number of plane-waves:     97356
 maximum index in each direction: 
   IXMAX=   22   IYMAX=   22   IZMAX=   22
   IXMIN=  -23   IYMIN=  -23   IZMIN=  -23


 parallel 3D FFT for wavefunctions:
    minimum data exchange during FFTs selected (reduces bandwidth)
 parallel 3D FFT for charge:
    minimum data exchange during FFTs selected (reduces bandwidth)


 FFT grid for exact exchange (Hartree Fock) 
  NGX = 48; NGY = 48; NGZ = 48


 Radii for the augmentation spheres in the non-local exchange
 for species   1 augmentation radius   1.444 (default was   1.070)
       energy cutoff for augmentation   1800.0
 for species   2 augmentation radius   1.606 (default was   1.190)
       energy cutoff for augmentation   1800.0

 real space projection operators:
  total allocation   :       9375.20 KBytes
  max/ min on nodes  :       1191.99       1140.62

 Maximum index for augmentation-charges in exchange          106
  SETUP_FOCK is finished

 total amount of memory used by VASP MPI-rank0    97258. kBytes
=======================================================================

   base      :      30000. kBytes
   nonl-proj :      20545. kBytes
   fftplans  :      10412. kBytes
   grid      :      23003. kBytes
   one-center:        559. kBytes
   HF        :        129. kBytes
   nonlr-proj:       2389. kBytes
   wavefun   :      10221. kBytes

     INWAV:  cpu time    0.0000: real time    0.0000
 Broyden mixing: mesh for mixing (old mesh)
   NGX = 45   NGY = 45   NGZ = 45
  (NGX  =192   NGY  =192   NGZ  =192)
  gives a total of  91125 points

 initial charge density was supplied:
 charge density of overlapping atoms calculated
 number of electron     588.0000000 magnetization      65.0000000     65.0000000     65.0000000
 keeping initial charge density in first step


--------------------------------------------------------------------------------------------------------


 Maximum index for augmentation-charges         3093 (set IRDMAX)


--------------------------------------------------------------------------------------------------------


 First call to EWALD:  gamma=   0.135
 Maximum number of real-space cells 3x 3x 3
 Maximum number of reciprocal cells 3x 3x 3

    FEWALD:  cpu time    0.0179: real time    0.0179


--------------------------------------- Iteration      1(   1)  ---------------------------------------


    POTLOK:  cpu time    8.6795: real time    8.6828
    SETDIJ:  cpu time    2.5924: real time    2.5931
    TRIAL :  cpu time  223.7181: real time  223.7847
    CORREC:  cpu time    0.0016: real time    0.0016
    --------------------------------------------
      LOOP:  cpu time  235.1251: real time  235.1956

 eigenvalue-minimisations  : 16384
 total energy-change (2. order) : 0.3973696E+04  (-0.2721701E+05)
 number of electron     588.0000000 magnetization      65.0000000     65.0000000     65.0000000
 augmentation part      588.0000000 magnetization      65.0000000     65.0000000     65.0000000

 Free energy of the ion-electron system (eV)
  ---------------------------------------------------
  alpha Z        PSCENC =      1642.45118531
  Ewald energy   TEWEN  =    -33940.17512420
  -Hartree energ DENC   =    -17077.89199325
  -exchange      EXHF   =         0.00000000
  -V(xc)+E(xc)   XCENC  =      -617.56595420
  PAW double counting   =     46020.13618676   -43994.38451620
  entropy T*S    EENTRO =        -0.03035453
  eigenvalues    EBANDS =      2191.73069880
  atomic energy  EATOM  =     49749.42546356
  ---------------------------------------------------
  free energy    TOTEN  =      3973.69559206 eV

  energy without entropy =     3973.72594659  energy(sigma->0) =     3973.71076933
  exchange ACFDT corr.  =         0.00000000  see jH, gK, PRB 81, 115126


--------------------------------------------------------------------------------------------------------




--------------------------------------- Iteration      1(   2)  ---------------------------------------


    TRIAL :  cpu time  264.6248: real time  264.7014
    CORREC:  cpu time    0.0020: real time    0.0020
    --------------------------------------------
      LOOP:  cpu time  264.6479: real time  264.7753

 eigenvalue-minimisations  : 20480
 total energy-change (2. order) :-0.2938096E+04  (-0.2828171E+04)
 number of electron     588.0000000 magnetization      65.0000000     65.0000000     65.0000000
 augmentation part      588.0000000 magnetization      65.0000000     65.0000000     65.0000000

 Free energy of the ion-electron system (eV)
  ---------------------------------------------------
  alpha Z        PSCENC =      1642.45118531
  Ewald energy   TEWEN  =    -33940.17512420
  -Hartree energ DENC   =    -17077.89199325
  -exchange      EXHF   =         0.00000000
  -V(xc)+E(xc)   XCENC  =      -617.56595420
  PAW double counting   =     46020.13618676   -43994.38451620
  entropy T*S    EENTRO =        -0.01420943
  eigenvalues    EBANDS =      -746.38191522
  atomic energy  EATOM  =     49749.42546356
  ---------------------------------------------------
  free energy    TOTEN  =      1035.59912314 eV

  energy without entropy =     1035.61333257  energy(sigma->0) =     1035.60622786
  exchange ACFDT corr.  =         0.00000000  see jH, gK, PRB 81, 115126


--------------------------------------------------------------------------------------------------------




--------------------------------------- Iteration      1(   3)  ---------------------------------------


    TRIAL :  cpu time  259.8986: real time  259.9742
    CORREC:  cpu time    0.0015: real time    0.0015
    --------------------------------------------
      LOOP:  cpu time  259.9215: real time  260.0507

 eigenvalue-minimisations  : 20480
 total energy-change (2. order) :-0.9280382E+02  (-0.9271244E+02)
 number of electron     588.0000000 magnetization      65.0000000     65.0000000     65.0000000
 augmentation part      588.0000000 magnetization      65.0000000     65.0000000     65.0000000

 Free energy of the ion-electron system (eV)
  ---------------------------------------------------
  alpha Z        PSCENC =      1642.45118531
  Ewald energy   TEWEN  =    -33940.17512420
  -Hartree energ DENC   =    -17077.89199325
  -exchange      EXHF   =         0.00000000
  -V(xc)+E(xc)   XCENC  =      -617.56595420
  PAW double counting   =     46020.13618676   -43994.38451620
  entropy T*S    EENTRO =        -0.01278810
  eigenvalues    EBANDS =      -839.18715832
  atomic energy  EATOM  =     49749.42546356
  ---------------------------------------------------
  free energy    TOTEN  =       942.79530136 eV

  energy without entropy =      942.80808946  energy(sigma->0) =      942.80169541
  exchange ACFDT corr.  =         0.00000000  see jH, gK, PRB 81, 115126


--------------------------------------------------------------------------------------------------------




--------------------------------------- Iteration      1(   4)  ---------------------------------------


    TRIAL :  cpu time  620.5940: real time  620.7715
    CORREC:  cpu time    0.0021: real time    0.0021
    --------------------------------------------
      LOOP:  cpu time  620.6694: real time  620.8504

 eigenvalue-minimisations  : 28672
 total energy-change (2. order) :-0.1205154E+01  (-0.1205079E+01)
 number of electron     588.0000000 magnetization      65.0000000     65.0000000     65.0000000
 augmentation part      588.0000000 magnetization      65.0000000     65.0000000     65.0000000

 Free energy of the ion-electron system (eV)
  ---------------------------------------------------
  alpha Z        PSCENC =      1642.45118531
  Ewald energy   TEWEN  =    -33940.17512420
  -Hartree energ DENC   =    -17077.89199325
  -exchange      EXHF   =         0.00000000
  -V(xc)+E(xc)   XCENC  =      -617.56595420
  PAW double counting   =     46020.13618676   -43994.38451620
  entropy T*S    EENTRO =        -0.01278127
  eigenvalues    EBANDS =      -840.39231905
  atomic energy  EATOM  =     49749.42546356
  ---------------------------------------------------
  free energy    TOTEN  =       941.59014747 eV

  energy without entropy =      941.60292874  energy(sigma->0) =      941.59653810
  exchange ACFDT corr.  =         0.00000000  see jH, gK, PRB 81, 115126


--------------------------------------------------------------------------------------------------------




--------------------------------------- Iteration      1(   5)  ---------------------------------------


    TRIAL :  cpu time  228.1478: real time  228.2144
    CORREC:  cpu time    0.0026: real time    0.0026
    CHARGE:  cpu time    0.8364: real time    0.8372
    --------------------------------------------
      LOOP:  cpu time  228.9948: real time  229.1309

 eigenvalue-minimisations  : 18944
 total energy-change (2. order) :-0.2700388E-02  (-0.2606299E-02)
 number of electron     588.0000006 magnetization       0.6810425      0.6810425      0.6810426
 augmentation part      145.4902897 magnetization       0.5818455      0.5818540      0.5818512

 Free energy of the ion-electron system (eV)
  ---------------------------------------------------
  alpha Z        PSCENC =      1642.45118531
  Ewald energy   TEWEN  =    -33940.17512420
  -Hartree energ DENC   =    -17077.89199325
  -exchange      EXHF   =         0.00000000
  -V(xc)+E(xc)   XCENC  =      -617.56595420
  PAW double counting   =     46020.13618676   -43994.38451620
  entropy T*S    EENTRO =        -0.01278126
  eigenvalues    EBANDS =      -840.39501944
  atomic energy  EATOM  =     49749.42546356
  ---------------------------------------------------
  free energy    TOTEN  =       941.58744708 eV

  energy without entropy =      941.60022834  energy(sigma->0) =      941.59383771
  exchange ACFDT corr.  =         0.00000000  see jH, gK, PRB 81, 115126


--------------------------------------------------------------------------------------------------------




--------------------------------------- Iteration      1(   6)  ---------------------------------------


    POTLOK:  cpu time    8.3719: real time    8.3746
    SETDIJ:  cpu time    2.8663: real time    2.8671
    TRIAL :  cpu time  165.0609: real time  165.1346
    CORREC:  cpu time  173.7580: real time  173.8327
    EDDIAG:  cpu time  159.7645: real time  159.8331
    CHARGE:  cpu time    0.9076: real time    0.9083
    --------------------------------------------
      LOOP:  cpu time  510.7738: real time  511.0269

 eigenvalue-minimisations  :     0
 total energy-change (2. order) :-0.1090138E+04  (-0.4068846E+02)
 number of electron     588.0000006 magnetization       0.1811620      0.1811633      0.1811810
 augmentation part      153.7725175 magnetization       0.3609280      0.3607601      0.3606325

 Free energy of the ion-electron system (eV)
  ---------------------------------------------------
  alpha Z        PSCENC =      1642.45118531
  Ewald energy   TEWEN  =    -33940.17512420
  -Hartree energ DENC   =    -15674.50218429
  -exchange      EXHF   =      1130.14470915
  -V(xc)+E(xc)   XCENC  =      -655.60189512
  PAW double counting   =    120760.45175726  -118672.07495660
  entropy T*S    EENTRO =        -0.00699742
  eigenvalues    EBANDS =     -4463.59904002
  atomic energy  EATOM  =     49749.42546356
  ---------------------------------------------------
  free energy    TOTEN  =      -148.55053332 eV

  energy without entropy =     -148.54353590  energy(sigma->0) =     -148.54703461
  exchange ACFDT corr.  =        -0.01688529  see jH, gK, PRB 81, 115126


--------------------------------------------------------------------------------------------------------


  average scaling for gradient   0.9716


 average (electrostatic) potential at core
  the test charge radii are     1.0698  1.1897
  (the norm of the test charge is              1.0000)
       1 -32.3244       2 -32.4809       3 -32.4824       4 -32.6692       5 -32.4806
       6 -32.6714       7 -32.6701       8 -32.7353       9 -32.4798      10 -32.3266
      11 -32.6693      12 -32.4816      13 -32.6719      14 -32.4816      15 -32.7342
      16 -32.6711      17 -32.6711      18 -32.4808      19 -32.7356      20 -32.6711
      21 -32.4807      22 -32.3230      23 -32.6709      24 -32.4815      25 -32.4817
      26 -32.6702      27 -32.6695      28 -32.7343      29 -32.3234      30 -32.4817
      31 -32.4822      32 -32.6701      33 -30.9424      34 -88.0295      35 -87.6556
      36 -88.1681      37 -88.0296      38 -88.0294      39 -87.6558      40 -88.1681
      41 -88.0297      42 -87.9769      43 -88.1203      44 -88.1208      45 -87.9772
      46 -88.1205      47 -87.9767      48 -87.9776      49 -88.1209      50 -88.0294
      51 -88.0296      52 -88.1680      53 -88.1678      54 -87.6556      55 -87.6553
      56 -88.0296      57 -88.0291      58 -88.1679      59 -88.0294      60 -88.1682
      61 -88.0298      62 -88.0295      63 -87.6548      64 -88.0295      65 -87.6556



 E-fermi :   4.8001     XC(G=0):  -7.3038     alpha+bet : -7.2837


 k-point     1 :       0.0000    0.0000    0.0000
  band No.  band energies     occupation 
      1     -10.6305      1.00000
      2     -10.5935      1.00000
      3     -10.3994      1.00000
      4     -10.3984      1.00000
      5     -10.3975      1.00000
      6     -10.3818      1.00000
      7     -10.3817      1.00000
      8     -10.3647      1.00000
      9     -10.3584      1.00000
     10     -10.3573      1.00000
     11     -10.3565      1.00000
     12     -10.3412      1.00000
     13     -10.3411      1.00000
     14     -10.3240      1.00000
     15     -10.3129      1.00000
     16     -10.3112      1.00000
     17     -10.3094      1.00000
     18     -10.2722      1.00000
     19     -10.2703      1.00000
     20     -10.2675      1.00000
     21     -10.2541      1.00000
     22     -10.2521      1.00000
     23     -10.2517      1.00000
     24     -10.2426      1.00000
     25     -10.2406      1.00000
     26     -10.2403      1.00000
     27     -10.2362      1.00000
     28     -10.2340      1.00000
     29     -10.2331      1.00000
     30     -10.2109      1.00000
     31     -10.2105      1.00000
     32     -10.2102      1.00000
     33     -10.2007      1.00000
     34     -10.1986      1.00000
     35     -10.1964      1.00000
     36     -10.1913      1.00000
     37     -10.1909      1.00000
     38     -10.1894      1.00000
     39     -10.1673      1.00000
     40     -10.1673      1.00000
     41     -10.1354      1.00000
     42     -10.1303      1.00000
     43     -10.1282      1.00000
     44     -10.1260      1.00000
     45     -10.1203      1.00000
     46     -10.1179      1.00000
     47     -10.1166      1.00000
     48     -10.0893      1.00000
     49     -10.0830      1.00000
     50     -10.0819      1.00000
     51     -10.0760      1.00000
     52     -10.0736      1.00000
     53      -9.9492      1.00000
     54      -9.9002      1.00000
     55      -9.8634      1.00000
     56      -9.8626      1.00000
     57      -9.8621      1.00000
     58      -9.8320      1.00000
     59      -9.8318      1.00000
     60      -9.8122      1.00000
     61      -9.8118      1.00000
     62      -9.8110      1.00000
     63      -9.7800      1.00000
     64      -9.7799      1.00000
     65      -8.2202      1.00000
     66      -8.2198      1.00000
     67      -8.2182      1.00000
     68      -8.2171      1.00000
     69      -8.2133      1.00000
     70      -8.2120      1.00000
     71      -8.2117      1.00000
     72      -8.2088      1.00000
     73      -8.1888      1.00000
     74      -8.1867      1.00000
     75      -8.1846      1.00000
     76      -8.1824      1.00000
     77      -8.1773      1.00000
     78      -8.1733      1.00000
     79      -8.1707      1.00000
     80      -8.1704      1.00000
     81      -8.1673      1.00000
     82      -8.1672      1.00000
     83      -8.1666      1.00000
     84      -8.1631      1.00000
     85      -8.1564      1.00000
     86      -8.1545      1.00000
     87      -8.1418      1.00000
     88      -8.1411      1.00000
     89      -8.1387      1.00000
     90      -8.1386      1.00000
     91      -8.1352      1.00000
     92      -8.1342      1.00000
     93      -8.1332      1.00000
     94      -8.1316      1.00000
     95      -8.1306      1.00000
     96      -8.1284      1.00000
     97      -8.1217      1.00000
     98      -8.1207      1.00000
     99      -8.1109      1.00000
    100      -8.1092      1.00000
    101      -8.1081      1.00000
    102      -8.1077      1.00000
    103      -8.1057      1.00000
    104      -8.1054      1.00000
    105      -8.0959      1.00000
    106      -8.0957      1.00000
    107      -8.0951      1.00000
    108      -8.0949      1.00000
    109      -8.0666      1.00000
    110      -8.0664      1.00000
    111      -8.0638      1.00000
    112      -8.0634      1.00000
    113      -8.0502      1.00000
    114      -8.0486      1.00000
    115      -8.0327      1.00000
    116      -8.0319      1.00000
    117      -8.0306      1.00000
    118      -8.0300      1.00000
    119      -8.0225      1.00000
    120      -8.0204      1.00000
    121      -8.0105      1.00000
    122      -8.0042      1.00000
    123      -7.9956      1.00000
    124      -7.9938      1.00000
    125      -7.9829      1.00000
    126      -7.9823      1.00000
    127      -7.9791      1.00000
    128      -7.9785      1.00000
    129      -7.9564      1.00000
    130      -7.9556      1.00000
    131      -7.9552      1.00000
    132      -7.9533      1.00000
    133      -7.9522      1.00000
    134      -7.9520      1.00000
    135      -7.9438      1.00000
    136      -7.9430      1.00000
    137      -7.9428      1.00000
    138      -7.9422      1.00000
    139      -7.9389      1.00000
    140      -7.9355      1.00000
    141      -7.9333      1.00000
    142      -7.9324      1.00000
    143      -7.9322      1.00000
    144      -7.9318      1.00000
    145      -7.9304      1.00000
    146      -7.9301      1.00000
    147      -7.9054      1.00000
    148      -7.9053      1.00000
    149      -7.9034      1.00000
    150      -7.9032      1.00000
    151      -7.8960      1.00000
    152      -7.8940      1.00000
    153      -7.8868      1.00000
    154      -7.8853      1.00000
    155      -7.8850      1.00000
    156      -7.8837      1.00000
    157      -7.8633      1.00000
    158      -7.8605      1.00000
    159      -7.8598      1.00000
    160      -7.8573      1.00000
    161      -7.8571      1.00000
    162      -7.8542      1.00000
    163      -7.7957      1.00000
    164      -7.7955      1.00000
    165      -7.7946      1.00000
    166      -7.7942      1.00000
    167      -7.7838      1.00000
    168      -7.7802      1.00000
    169      -7.7663      1.00000
    170      -7.7661      1.00000
    171      -7.7657      1.00000
    172      -7.7654      1.00000
    173      -7.7646      1.00000
    174      -7.7587      1.00000
    175      -7.7414      1.00000
    176      -7.7410      1.00000
    177      -7.7401      1.00000
    178      -7.7396      1.00000
    179      -7.7395      1.00000
    180      -7.7380      1.00000
    181      -7.7268      1.00000
    182      -7.7246      1.00000
    183      -7.7082      1.00000
    184      -7.7072      1.00000
    185      -7.7068      1.00000
    186      -7.7054      1.00000
    187      -7.6560      1.00000
    188      -7.6548      1.00000
    189      -7.5959      1.00000
    190      -7.5956      1.00000
    191      -7.5954      1.00000
    192      -7.5946      1.00000
    193      -7.5939      1.00000
    194      -7.5908      1.00000
    195      -7.5468      1.00000
    196      -7.5425      1.00000
    197      -7.5179      1.00000
    198      -7.5168      1.00000
    199      -7.5151      1.00000
    200      -7.5144      1.00000
    201      -7.5121      1.00000
    202      -7.5080      1.00000
    203      -7.5022      1.00000
    204      -7.5016      1.00000
    205      -7.4987      1.00000
    206      -7.4982      1.00000
    207      -7.4931      1.00000
    208      -7.4929      1.00000
    209      -7.4927      1.00000
    210      -7.4924      1.00000
    211      -7.4712      1.00000
    212      -7.4680      1.00000
    213      -7.4590      1.00000
    214      -7.4578      1.00000
    215      -7.4559      1.00000
    216      -7.4548      1.00000
    217      -7.4533      1.00000
    218      -7.4530      1.00000
    219      -7.4470      1.00000
    220      -7.4444      1.00000
    221      -7.4442      1.00000
    222      -7.4437      1.00000
    223      -7.4423      1.00000
    224      -7.4420      1.00000
    225      -7.4319      1.00000
    226      -7.4315      1.00000
    227      -7.4301      1.00000
    228      -7.4296      1.00000
    229      -7.4277      1.00000
    230      -7.4267      1.00000
    231      -7.4258      1.00000
    232      -7.4241      1.00000
    233      -7.4231      1.00000
    234      -7.4214      1.00000
    235      -7.4162      1.00000
    236      -7.4148      1.00000
    237      -7.4110      1.00000
    238      -7.4097      1.00000
    239      -7.4058      1.00000
    240      -7.4011      1.00000
    241      -7.4001      1.00000
    242      -7.3999      1.00000
    243      -7.3978      1.00000
    244      -7.3974      1.00000
    245      -7.3917      1.00000
    246      -7.3908      1.00000
    247      -7.3888      1.00000
    248      -7.3860      1.00000
    249      -7.3784      1.00000
    250      -7.3776      1.00000
    251      -7.3761      1.00000
    252      -7.3755      1.00000
    253      -7.3638      1.00000
    254      -7.3623      1.00000
    255      -7.3602      1.00000
    256      -7.3599      1.00000
    257      -7.3566      1.00000
    258      -7.3561      1.00000
    259      -7.3537      1.00000
    260      -7.3527      1.00000
    261      -7.3517      1.00000
    262      -7.3506      1.00000
    263      -7.3496      1.00000
    264      -7.3484      1.00000
    265      -7.3246      1.00000
    266      -7.3237      1.00000
    267      -7.3220      1.00000
    268      -7.3205      1.00000
    269      -7.3071      1.00000
    270      -7.3056      1.00000
    271      -7.3035      1.00000
    272      -7.3028      1.00000
    273      -7.3011      1.00000
    274      -7.3008      1.00000
    275      -7.3000      1.00000
    276      -7.2980      1.00000
    277      -7.2975      1.00000
    278      -7.2974      1.00000
    279      -7.2969      1.00000
    280      -7.2966      1.00000
    281      -7.2697      1.00000
    282      -7.2686      1.00000
    283      -7.2666      1.00000
    284      -7.2656      1.00000
    285      -7.2614      1.00000
    286      -7.2610      1.00000
    287      -7.2595      1.00000
    288      -7.2593      1.00000
    289      -7.2461      1.00000
    290      -7.2411      1.00000
    291      -7.2370      1.00000
    292      -7.2370      1.00000
    293      -7.2362      1.00000
    294      -7.2357      1.00000
    295      -7.2336      1.00000
    296      -7.2327      1.00000
    297      -7.2206      1.00000
    298      -7.2206      1.00000
    299      -7.2194      1.00000
    300      -7.2186      1.00000
    301      -7.2183      1.00000
    302      -7.2128      1.00000
    303      -7.2087      1.00000
    304      -7.2080      1.00000
    305      -7.2070      1.00000
    306      -7.2061      1.00000
    307      -7.2041      1.00000
    308      -7.2012      1.00000
    309      -7.1982      1.00000
    310      -7.1980      1.00000
    311      -7.1978      1.00000
    312      -7.1976      1.00000
    313      -7.1870      1.00000
    314      -7.1818      1.00000
    315      -7.1778      1.00000
    316      -7.1767      1.00000
    317      -7.1732      1.00000
    318      -7.1727      1.00000
    319      -7.1683      1.00000
    320      -7.1681      1.00000
    321      -7.1678      1.00000
    322      -7.1663      1.00000
    323      -7.1330      1.00000
    324      -7.1313      1.00000
    325      -7.1232      1.00000
    326      -7.1218      1.00000
    327      -7.1213      1.00000
    328      -7.1200      1.00000
    329      -7.0962      1.00000
    330      -7.0952      1.00000
    331      -7.0893      1.00000
    332      -7.0868      1.00000
    333      -7.0831      1.00000
    334      -7.0790      1.00000
    335      -7.0769      1.00000
    336      -7.0742      1.00000
    337      -7.0659      1.00000
    338      -7.0651      1.00000
    339      -7.0648      1.00000
    340      -7.0636      1.00000
    341      -7.0541      1.00000
    342      -7.0533      1.00000
    343      -7.0531      1.00000
    344      -7.0507      1.00000
    345      -7.0500      1.00000
    346      -7.0493      1.00000
    347      -7.0273      1.00000
    348      -7.0256      1.00000
    349      -7.0244      1.00000
    350      -7.0216      1.00000
    351      -6.9846      1.00000
    352      -6.9790      1.00000
    353      -6.9677      1.00000
    354      -6.9674      1.00000
    355      -6.9653      1.00000
    356      -6.9644      1.00000
    357      -6.9585      1.00000
    358      -6.9523      1.00000
    359      -6.9454      1.00000
    360      -6.9254      1.00000
    361      -6.8983      1.00000
    362      -6.8967      1.00000
    363      -6.8932      1.00000
    364      -6.8892      1.00000
    365      -6.8871      1.00000
    366      -6.8812      1.00000
    367      -6.8744      1.00000
    368      -6.8729      1.00000
    369      -6.8637      1.00000
    370      -6.8635      1.00000
    371      -6.8370      1.00000
    372      -6.8238      1.00000
    373      -6.8197      1.00000
    374      -6.8081      1.00000
    375      -6.8076      1.00000
    376      -6.8031      1.00000
    377      -6.8003      1.00000
    378      -6.7966      1.00000
    379      -6.7008      1.00000
    380      -6.6957      1.00000
    381      -6.6819      1.00000
    382      -6.6809      1.00000
    383      -6.6658      1.00000
    384      -6.6656      1.00000
    385      -6.3370      1.00000
    386      -6.3299      1.00000
    387      -6.3259      1.00000
    388      -6.3187      1.00000
    389      -5.7393      1.00000
    390      -5.7275      1.00000
    391      -5.7254      1.00000
    392      -5.7159      1.00000
    393      -5.7078      1.00000
    394      -5.7047      1.00000
    395      -3.3097      1.00000
    396      -3.2962      1.00000
    397      -3.1132      1.00000
    398      -3.1131      1.00000
    399      -3.1128      1.00000
    400      -3.1127      1.00000
    401      -3.1084      1.00000
    402      -3.1081      1.00000
    403      -3.0527      1.00000
    404      -3.0517      1.00000
    405      -3.0506      1.00000
    406      -3.0495      1.00000
    407      -3.0065      1.00000
    408      -3.0056      1.00000
    409      -2.9886      1.00000
    410      -2.9872      1.00000
    411      -2.8933      1.00000
    412      -2.8928      1.00000
    413      -2.8922      1.00000
    414      -2.8918      1.00000
    415      -2.7001      1.00000
    416      -2.6995      1.00000
    417      -2.6976      1.00000
    418      -2.6970      1.00000
    419      -2.6581      1.00000
    420      -2.6538      1.00000
    421      -2.6523      1.00000
    422      -2.6435      1.00000
    423      -2.4603      1.00000
    424      -2.4597      1.00000
    425      -2.4590      1.00000
    426      -2.4585      1.00000
    427      -2.4557      1.00000
    428      -2.4539      1.00000
    429      -2.3937      1.00000
    430      -2.3926      1.00000
    431      -2.3919      1.00000
    432      -2.3907      1.00000
    433      -2.3393      1.00000
    434      -2.3385      1.00000
    435      -2.2485      1.00000
    436      -2.2470      1.00000
    437      -2.2467      1.00000
    438      -2.2452      1.00000
    439      -2.2281      1.00000
    440      -2.2277      1.00000
    441      -2.2269      1.00000
    442      -2.2262      1.00000
    443      -2.1786      1.00000
    444      -2.1764      1.00000
    445      -1.4400      1.00000
    446      -1.4154      1.00000
    447      -1.2623      1.00000
    448      -1.2591      1.00000
    449      -1.2581      1.00000
    450      -1.2556      1.00000
    451      -1.2490      1.00000
    452      -1.2419      1.00000
    453      -1.2390      1.00000
    454      -1.2386      1.00000
    455      -1.2354      1.00000
    456      -1.2346      1.00000
    457      -1.2323      1.00000
    458      -1.2298      1.00000
    459      -1.2283      1.00000
    460      -1.2239      1.00000
    461      -1.2190      1.00000
    462      -1.2165      1.00000
    463      -1.0351      1.00000
    464      -1.0101      1.00000
    465      -0.8947      1.00000
    466      -0.8879      1.00000
    467      -0.8853      1.00000
    468      -0.8807      1.00000
    469      -0.8797      1.00000
    470      -0.8719      1.00000
    471      -0.8164      1.00000
    472      -0.8134      1.00000
    473      -0.8086      1.00000
    474      -0.8047      1.00000
    475      -0.7933      1.00000
    476      -0.7896      1.00000
    477      -0.7875      1.00000
    478      -0.7777      1.00000
    479      -0.7522      1.00000
    480      -0.7499      1.00000
    481      -0.7483      1.00000
    482      -0.7478      1.00000
    483      -0.7172      1.00000
    484      -0.7105      1.00000
    485      -0.7074      1.00000
    486      -0.7031      1.00000
    487      -0.6955      1.00000
    488      -0.6911      1.00000
    489      -0.6822      1.00000
    490      -0.6819      1.00000
    491      -0.6729      1.00000
    492      -0.6688      1.00000
    493      -0.6541      1.00000
    494      -0.6424      1.00000
    495      -0.6095      1.00000
    496      -0.6086      1.00000
    497      -0.5984      1.00000
    498      -0.5982      1.00000
    499      -0.5713      1.00000
    500      -0.5710      1.00000
    501      -0.5548      1.00000
    502      -0.5518      1.00000
    503      -0.5511      1.00000
    504      -0.5490      1.00000
    505      -0.5031      1.00000
    506      -0.5015      1.00000
    507      -0.5006      1.00000
    508      -0.4977      1.00000
    509      -0.4738      1.00000
    510      -0.4637      1.00000
    511      -0.2712      1.00000
    512      -0.2705      1.00000
    513      -0.2601      1.00000
    514      -0.2559      1.00000
    515      -0.2115      1.00000
    516      -0.2016      1.00000
    517       0.1595      1.00000
    518       0.1740      1.00000
    519       0.1835      1.00000
    520       0.1930      1.00000
    521       0.1999      1.00000
    522       0.2119      1.00000
    523       0.2158      1.00000
    524       0.2207      1.00000
    525       0.2391      1.00000
    526       0.2399      1.00000
    527       0.2538      1.00000
    528       0.2539      1.00000
    529       0.3958      1.00000
    530       0.4100      1.00000
    531       0.4108      1.00000
    532       0.4109      1.00000
    533       0.4247      1.00000
    534       0.4265      1.00000
    535       0.4279      1.00000
    536       0.4430      1.00000
    537       0.5652      1.00000
    538       0.5656      1.00000
    539       0.5782      1.00000
    540       0.5791      1.00000
    541       0.5951      1.00000
    542       0.5998      1.00000
    543       0.6032      1.00000
    544       0.6123      1.00000
    545       0.6156      1.00000
    546       0.6197      1.00000
    547       0.6207      1.00000
    548       0.6266      1.00000
    549       0.6563      1.00000
    550       0.6700      1.00000
    551       0.6751      1.00000
    552       0.6760      1.00000
    553       0.6813      1.00000
    554       0.6921      1.00000
    555       0.6923      1.00000
    556       0.6939      1.00000
    557       0.7008      1.00000
    558       0.7025      1.00000
    559       0.7061      1.00000
    560       0.7112      1.00000
    561       0.7253      1.00000
    562       0.7256      1.00000
    563       0.7280      1.00000
    564       0.7382      1.00000
    565       0.7452      1.00000
    566       0.7527      1.00000
    567       0.7541      1.00000
    568       0.7693      1.00000
    569       0.7754      1.00000
    570       0.7785      1.00000
    571       0.7920      1.00000
    572       0.7969      1.00000
    573       0.9142      1.00000
    574       0.9344      1.00000
    575       1.0004      1.00000
    576       1.0069      1.00000
    577       1.0109      1.00000
    578       1.0132      1.00000
    579       1.0642      1.00000
    580       1.0659      1.00000
    581       1.0907      1.00000
    582       1.0948      1.00000
    583       1.7659      1.00000
    584       1.7890      1.00000
    585       1.8105      1.00000
    586       1.8306      1.00000
    587       2.6354      1.00000
    588       2.6486      1.00000
    589       3.5213      1.00000
    590       3.5408      0.00746
    591       4.0311      0.00688
    592       4.0312      0.00653
    593       4.0314      0.00146
    594       4.0632      0.00000
    595       4.0636      0.00000
    596       4.0636      0.00000
    597       4.0923      0.00000
    598       4.1224      0.00000
    599       4.8021      0.00000
    600       4.8022      0.00000
    601       4.8586      0.00000
    602       4.8586      0.00000
    603       5.0208      0.00000
    604       5.0216      0.00000
    605       5.0220      0.00000
    606       5.0332      0.00000
    607       5.0495      0.00000
    608       5.0982      0.00000
    609       5.1044      0.00000
    610       5.1352      0.00000
    611       5.1552      0.00000
    612       5.1674      0.00000
    613       5.1775      0.00000
    614       5.2060      0.00000
    615       5.2388      0.00000
    616       5.2446      0.00000
    617       5.2560      0.00000
    618       5.2651      0.00000
    619       5.3636      0.00000
    620       5.3835      0.00000
    621       5.3929      0.00000
    622       5.3960      0.00000
    623       5.3987      0.00000
    624       5.3987      0.00000
    625       5.4033      0.00000
    626       5.4160      0.00000
    627       5.4200      0.00000
    628       5.4239      0.00000
    629       5.4319      0.00000
    630       5.4453      0.00000
    631       5.4498      0.00000
    632       5.4614      0.00000
    633       5.4708      0.00000
    634       5.4760      0.00000
    635       5.4767      0.00000
    636       5.4768      0.00000
    637       5.4805      0.00000
    638       5.4821      0.00000
    639       5.4846      0.00000
    640       5.4874      0.00000
    641       5.4885      0.00000
    642       5.4895      0.00000
    643       5.4933      0.00000
    644       5.4959      0.00000
    645       5.4978      0.00000
    646       5.5009      0.00000
    647       5.5021      0.00000
    648       5.5065      0.00000
    649       5.5241      0.00000
    650       5.5257      0.00000
    651       5.5301      0.00000
    652       5.5327      0.00000
    653       5.5354      0.00000
    654       5.5371      0.00000
    655       5.5480      0.00000
    656       5.5565      0.00000
    657       6.2583      0.00000
    658       6.3459      0.00000
    659       6.4532      0.00000
    660       6.4902      0.00000
    661       6.5449      0.00000
    662       6.5690      0.00000
    663       6.7169      0.00000
    664       6.7398      0.00000
    665       6.7830      0.00000
    666       6.8382      0.00000
    667       6.8558      0.00000
    668       6.8829      0.00000
    669       6.8979      0.00000
    670       6.9001      0.00000
    671       6.9088      0.00000
    672       6.9116      0.00000
    673       6.9238      0.00000
    674       6.9328      0.00000
    675       6.9367      0.00000
    676       6.9485      0.00000
    677       6.9584      0.00000
    678       6.9944      0.00000
    679       7.0042      0.00000
    680       7.0081      0.00000
    681       7.0459      0.00000
    682       7.0496      0.00000
    683       7.0512      0.00000
    684       7.0556      0.00000
    685       7.0619      0.00000
    686       7.1146      0.00000
    687       7.1774      0.00000
    688       7.1830      0.00000
    689       7.2139      0.00000
    690       7.2151      0.00000
    691       7.2349      0.00000
    692       7.2865      0.00000
    693       7.3207      0.00000
    694       7.3331      0.00000
    695       7.3683      0.00000
    696       7.3997      0.00000
    697       7.4161      0.00000
    698       7.4187      0.00000
    699       7.4220      0.00000
    700       7.4238      0.00000
    701       7.4302      0.00000
    702       7.4382      0.00000
    703       7.4437      0.00000
    704       7.4644      0.00000
    705       7.4847      0.00000
    706       7.4851      0.00000
    707       7.5373      0.00000
    708       7.5715      0.00000
    709       7.5728      0.00000
    710       7.5879      0.00000
    711       7.6102      0.00000
    712       7.6140      0.00000
    713       7.6267      0.00000
    714       7.6318      0.00000
    715       7.6465      0.00000
    716       7.6538      0.00000
    717       7.6608      0.00000
    718       7.6669      0.00000
    719       7.7060      0.00000
    720       7.7083      0.00000
    721       7.7103      0.00000
    722       7.7190      0.00000
    723       7.7216      0.00000
    724       7.7236      0.00000
    725       7.7329      0.00000
    726       7.7613      0.00000
    727       7.7783      0.00000
    728       7.7793      0.00000
    729       7.7810      0.00000
    730       7.7855      0.00000
    731       7.7893      0.00000
    732       7.7906      0.00000
    733       7.7964      0.00000
    734       7.7979      0.00000
    735       7.8069      0.00000
    736       7.8139      0.00000
    737       7.8152      0.00000
    738       7.8228      0.00000
    739       7.8239      0.00000
    740       7.8302      0.00000
    741       7.8449      0.00000
    742       7.8711      0.00000
    743       7.8774      0.00000
    744       7.8907      0.00000
    745       7.9067      0.00000
    746       7.9173      0.00000
    747       7.9273      0.00000
    748       7.9516      0.00000
    749       7.9527      0.00000
    750       7.9574      0.00000
    751       7.9575      0.00000
    752       7.9669      0.00000
    753       7.9811      0.00000
    754       7.9855      0.00000
    755       8.0023      0.00000
    756       8.0039      0.00000
    757       8.0100      0.00000
    758       8.0171      0.00000
    759       8.0255      0.00000
    760       8.0261      0.00000
    761       8.0370      0.00000
    762       8.0644      0.00000
    763       8.0663      0.00000
    764       8.0717      0.00000
    765       8.0839      0.00000
    766       8.1510      0.00000
    767       8.1747      0.00000
    768       8.1762      0.00000
    769       8.1798      0.00000
    770       8.2786      0.00000
    771       8.2809      0.00000
    772       8.2830      0.00000
    773       8.3027      0.00000
    774       8.3034      0.00000
    775       8.3075      0.00000
    776       8.3076      0.00000
    777       8.3098      0.00000
    778       8.3136      0.00000
    779       8.3137      0.00000
    780       8.3144      0.00000
    781       8.3155      0.00000
    782       8.3176      0.00000
    783       8.3324      0.00000
    784       8.3384      0.00000
    785       8.3414      0.00000
    786       8.4882      0.00000
    787       8.5659      0.00000
    788       8.5904      0.00000
    789       8.5952      0.00000
    790       8.6634      0.00000
    791       8.6637      0.00000
    792       8.6656      0.00000
    793       8.6659      0.00000
    794       8.6659      0.00000
    795       8.6697      0.00000
    796       8.6704      0.00000
    797       8.6769      0.00000
    798       8.6817      0.00000
    799       8.7345      0.00000
    800       8.8227      0.00000
    801       8.8334      0.00000
    802       8.8429      0.00000
    803       8.8454      0.00000
    804       8.8958      0.00000
    805       8.8975      0.00000
    806       8.9026      0.00000
    807       8.9180      0.00000
    808       8.9186      0.00000
    809       8.9204      0.00000
    810       8.9266      0.00000
    811       8.9341      0.00000
    812       8.9396      0.00000
    813       8.9551      0.00000
    814       8.9596      0.00000
    815       8.9617      0.00000
    816       8.9836      0.00000
    817       8.9837      0.00000
    818       8.9906      0.00000
    819       9.0142      0.00000
    820       9.0190      0.00000
    821       9.0232      0.00000
    822       9.0238      0.00000
    823       9.0280      0.00000
    824       9.0299      0.00000
    825       9.0343      0.00000
    826       9.0379      0.00000
    827       9.0484      0.00000
    828       9.0545      0.00000
    829       9.0748      0.00000
    830       9.0921      0.00000
    831       9.0948      0.00000
    832       9.0958      0.00000
    833       9.1027      0.00000
    834       9.1313      0.00000
    835       9.1331      0.00000
    836       9.1826      0.00000
[...]
 l=   3
     0.0000000     0.0000000     0.0000000     0.0000000     0.0000000     0.0000000     0.0000000
     0.0000000     0.0000000     0.0000000     0.0000000     0.0000000     0.0000000     0.0000000
     0.0000000     0.0000000     0.0000000     0.0000000     0.0000000     0.0000000     0.0000000
     0.0000000     0.0000000     0.0000000     0.0000000     0.0000000     0.0000000     0.0000000
     0.0000000     0.0000000     0.0000000     0.0000000     0.0000000     0.0000000     0.0000000
     0.0000000     0.0000000     0.0000000     0.0000000     0.0000000     0.0000000     0.0000000
     0.0000000     0.0000000     0.0000000     0.0000000     0.0000000     0.0000000     0.0000000

 Ion:   61  E_soc:     -0.1804698
 l=   1
     0.0000000    -0.0299752    -0.0300269
    -0.0299752     0.0000000    -0.0299828
    -0.0300269    -0.0299828     0.0000000
 l=   2
    -0.0000000    -0.0000294     0.0000000    -0.0000285    -0.0000569
    -0.0000294    -0.0000000    -0.0000402    -0.0000296    -0.0000132
     0.0000000    -0.0000402     0.0000000    -0.0000392     0.0000000
    -0.0000285    -0.0000296    -0.0000392    -0.0000000    -0.0000131
    -0.0000569    -0.0000132     0.0000000    -0.0000131    -0.0000000
 l=   3
     0.0000000     0.0000000     0.0000000     0.0000000     0.0000000     0.0000000     0.0000000
     0.0000000     0.0000000     0.0000000     0.0000000     0.0000000     0.0000000     0.0000000
     0.0000000     0.0000000     0.0000000     0.0000000     0.0000000     0.0000000     0.0000000
     0.0000000     0.0000000     0.0000000     0.0000000     0.0000000     0.0000000     0.0000000
     0.0000000     0.0000000     0.0000000     0.0000000     0.0000000     0.0000000     0.0000000
     0.0000000     0.0000000     0.0000000     0.0000000     0.0000000     0.0000000     0.0000000
     0.0000000     0.0000000     0.0000000     0.0000000     0.0000000     0.0000000     0.0000000

 Ion:   62  E_soc:     -0.1804576
 l=   1
     0.0000000    -0.0300216    -0.0299769
    -0.0300216     0.0000000    -0.0299795
    -0.0299769    -0.0299795     0.0000000
 l=   2
    -0.0000000    -0.0000293     0.0000000    -0.0000297    -0.0000538
    -0.0000293    -0.0000000    -0.0000420    -0.0000285    -0.0000149
     0.0000000    -0.0000420     0.0000000    -0.0000393     0.0000000
    -0.0000297    -0.0000285    -0.0000393    -0.0000000    -0.0000133
    -0.0000538    -0.0000149     0.0000000    -0.0000133    -0.0000000
 l=   3
     0.0000000     0.0000000     0.0000000     0.0000000     0.0000000     0.0000000     0.0000000
     0.0000000     0.0000000     0.0000000     0.0000000     0.0000000     0.0000000     0.0000000
     0.0000000     0.0000000     0.0000000     0.0000000     0.0000000     0.0000000     0.0000000
     0.0000000     0.0000000     0.0000000     0.0000000     0.0000000     0.0000000     0.0000000
     0.0000000     0.0000000     0.0000000     0.0000000     0.0000000     0.0000000     0.0000000
     0.0000000     0.0000000     0.0000000     0.0000000     0.0000000     0.0000000     0.0000000
     0.0000000     0.0000000     0.0000000     0.0000000     0.0000000     0.0000000     0.0000000

 Ion:   63  E_soc:     -0.1828336
 l=   1
     0.0000000    -0.0304202    -0.0304129
    -0.0304202     0.0000000    -0.0303624
    -0.0304129    -0.0303624     0.0000000
 l=   2
    -0.0000000    -0.0000263     0.0000000    -0.0000263    -0.0000474
    -0.0000263    -0.0000000    -0.0000358    -0.0000261    -0.0000115
     0.0000000    -0.0000358     0.0000000    -0.0000358     0.0000000
    -0.0000263    -0.0000261    -0.0000358    -0.0000000    -0.0000120
    -0.0000474    -0.0000115     0.0000000    -0.0000120     0.0000000
 l=   3
     0.0000000     0.0000000     0.0000000     0.0000000     0.0000000     0.0000000     0.0000000
     0.0000000     0.0000000     0.0000000     0.0000000     0.0000000     0.0000000     0.0000000
     0.0000000     0.0000000     0.0000000     0.0000000     0.0000000     0.0000000     0.0000000
     0.0000000     0.0000000     0.0000000     0.0000000     0.0000000     0.0000000     0.0000000
     0.0000000     0.0000000     0.0000000     0.0000000     0.0000000     0.0000000     0.0000000
     0.0000000     0.0000000     0.0000000     0.0000000     0.0000000     0.0000000     0.0000000
     0.0000000     0.0000000     0.0000000     0.0000000     0.0000000     0.0000000     0.0000000

 Ion:   64  E_soc:     -0.1804679
 l=   1
     0.0000000    -0.0300234    -0.0299775
    -0.0300234     0.0000000    -0.0299823
    -0.0299775    -0.0299823     0.0000000
 l=   2
    -0.0000000    -0.0000295     0.0000000    -0.0000295    -0.0000535
    -0.0000295    -0.0000000    -0.0000421    -0.0000286    -0.0000150
     0.0000000    -0.0000421     0.0000000    -0.0000395     0.0000000
    -0.0000295    -0.0000286    -0.0000395    -0.0000000    -0.0000132
    -0.0000535    -0.0000150     0.0000000    -0.0000132    -0.0000000
 l=   3
     0.0000000     0.0000000     0.0000000     0.0000000     0.0000000     0.0000000     0.0000000
     0.0000000     0.0000000     0.0000000     0.0000000     0.0000000     0.0000000     0.0000000
     0.0000000     0.0000000     0.0000000     0.0000000     0.0000000     0.0000000     0.0000000
     0.0000000     0.0000000     0.0000000     0.0000000     0.0000000     0.0000000     0.0000000
     0.0000000     0.0000000     0.0000000     0.0000000     0.0000000     0.0000000     0.0000000
     0.0000000     0.0000000     0.0000000     0.0000000     0.0000000     0.0000000     0.0000000
     0.0000000     0.0000000     0.0000000     0.0000000     0.0000000     0.0000000     0.0000000

 Ion:   65  E_soc:     -0.1828149
 l=   1
     0.0000000    -0.0304137    -0.0304140
    -0.0304137     0.0000000    -0.0303579
    -0.0304140    -0.0303579     0.0000000
 l=   2
    -0.0000000    -0.0000265     0.0000000    -0.0000261    -0.0000478
    -0.0000265    -0.0000000    -0.0000358    -0.0000262    -0.0000117
     0.0000000    -0.0000358     0.0000000    -0.0000357     0.0000000
    -0.0000261    -0.0000262    -0.0000357    -0.0000000    -0.0000120
    -0.0000478    -0.0000117     0.0000000    -0.0000120     0.0000000
 l=   3
     0.0000000     0.0000000     0.0000000     0.0000000     0.0000000     0.0000000     0.0000000
     0.0000000     0.0000000     0.0000000     0.0000000     0.0000000     0.0000000     0.0000000
     0.0000000     0.0000000     0.0000000     0.0000000     0.0000000     0.0000000     0.0000000
     0.0000000     0.0000000     0.0000000     0.0000000     0.0000000     0.0000000     0.0000000
     0.0000000     0.0000000     0.0000000     0.0000000     0.0000000     0.0000000     0.0000000
     0.0000000     0.0000000     0.0000000     0.0000000     0.0000000     0.0000000     0.0000000
     0.0000000     0.0000000     0.0000000     0.0000000     0.0000000     0.0000000     0.0000000



 total charge     

# of ion       s       p       d       tot
------------------------------------------
    1        0.432   0.296   9.475  10.204
    2        0.441   0.309   9.475  10.226
    3        0.441   0.309   9.475  10.226
    4        0.440   0.309   9.475  10.224
    5        0.441   0.309   9.475  10.226
    6        0.440   0.309   9.475  10.224
    7        0.440   0.309   9.475  10.224
    8        0.438   0.306   9.476  10.220
    9        0.441   0.309   9.475  10.226
   10        0.432   0.296   9.475  10.204
   11        0.440   0.309   9.475  10.224
   12        0.441   0.309   9.475  10.226
   13        0.440   0.309   9.475  10.224
   14        0.441   0.309   9.475  10.226
   15        0.438   0.306   9.476  10.220
   16        0.440   0.309   9.475  10.224
   17        0.440   0.309   9.475  10.224
   18        0.441   0.309   9.475  10.226
   19        0.438   0.306   9.476  10.220
   20        0.440   0.309   9.475  10.224
   21        0.441   0.309   9.475  10.226
   22        0.432   0.296   9.475  10.204
   23        0.440   0.309   9.475  10.224
   24        0.441   0.309   9.475  10.226
   25        0.441   0.309   9.475  10.226
   26        0.440   0.309   9.475  10.224
   27        0.440   0.309   9.475  10.224
   28        0.438   0.306   9.476  10.220
   29        0.432   0.296   9.476  10.204
   30        0.441   0.309   9.475  10.226
   31        0.441   0.309   9.475  10.226
   32        0.440   0.309   9.475  10.224
   33        0.694   0.191   9.468  10.353
   34        1.312   2.159   0.022   3.494
   35        1.325   2.138   0.023   3.485
   36        1.312   2.157   0.021   3.491
   37        1.312   2.159   0.022   3.494
   38        1.312   2.159   0.022   3.494
   39        1.325   2.138   0.023   3.485
   40        1.312   2.157   0.021   3.491
   41        1.312   2.159   0.022   3.494
   42        1.312   2.156   0.021   3.489
   43        1.313   2.153   0.022   3.488
   44        1.313   2.153   0.022   3.488
   45        1.312   2.156   0.021   3.489
   46        1.313   2.153   0.022   3.488
   47        1.312   2.156   0.021   3.489
   48        1.312   2.156   0.021   3.489
   49        1.313   2.153   0.022   3.488
   50        1.312   2.159   0.022   3.494
   51        1.312   2.159   0.022   3.494
   52        1.312   2.157   0.021   3.491
   53        1.312   2.157   0.021   3.491
   54        1.325   2.138   0.023   3.485
   55        1.325   2.138   0.023   3.485
   56        1.312   2.159   0.022   3.494
   57        1.312   2.159   0.022   3.494
   58        1.312   2.157   0.021   3.491
   59        1.312   2.159   0.022   3.494
   60        1.312   2.157   0.021   3.491
   61        1.312   2.159   0.022   3.494
   62        1.312   2.159   0.022   3.494
   63        1.325   2.138   0.023   3.485
   64        1.312   2.159   0.022   3.494
   65        1.325   2.138   0.023   3.485
--------------------------------------------------
tot         56.827  78.936 313.382 449.145



 magnetization (x)

# of ion       s       p       d       tot
------------------------------------------
    1       -0.003  -0.003   0.004  -0.002
    2       -0.004  -0.003   0.004  -0.003
    3       -0.004  -0.003   0.004  -0.003
    4       -0.004  -0.003   0.004  -0.003
    5       -0.004  -0.003   0.004  -0.003
    6       -0.004  -0.003   0.004  -0.003
    7       -0.004  -0.003   0.004  -0.003
    8       -0.004  -0.003   0.004  -0.003
    9       -0.004  -0.003   0.004  -0.003
   10       -0.003  -0.003   0.004  -0.002
   11       -0.004  -0.003   0.004  -0.003
   12       -0.004  -0.003   0.004  -0.003
   13       -0.004  -0.003   0.004  -0.003
   14       -0.004  -0.003   0.004  -0.003
   15       -0.004  -0.003   0.004  -0.003
   16       -0.004  -0.003   0.004  -0.003
   17       -0.004  -0.003   0.004  -0.003
   18       -0.004  -0.003   0.004  -0.003
   19       -0.004  -0.003   0.004  -0.003
   20       -0.004  -0.003   0.004  -0.003
   21       -0.004  -0.003   0.004  -0.003
   22       -0.003  -0.003   0.004  -0.002
   23       -0.004  -0.003   0.004  -0.003
   24       -0.004  -0.003   0.004  -0.003
   25       -0.004  -0.003   0.004  -0.003
   26       -0.004  -0.003   0.004  -0.003
   27       -0.004  -0.003   0.004  -0.003
   28       -0.004  -0.003   0.004  -0.003
   29       -0.003  -0.003   0.004  -0.002
   30       -0.004  -0.003   0.004  -0.003
   31       -0.004  -0.003   0.004  -0.003
   32       -0.004  -0.003   0.004  -0.003
   33        0.026  -0.003   0.003   0.025
   34        0.007   0.024  -0.000   0.031
   35        0.008   0.027  -0.000   0.035
   36        0.008   0.024  -0.000   0.031
   37        0.007   0.024  -0.000   0.031
   38        0.007   0.024  -0.000   0.031
   39        0.008   0.027  -0.000   0.035
   40        0.008   0.024  -0.000   0.031
   41        0.007   0.024  -0.000   0.031
   42        0.008   0.024  -0.000   0.031
   43        0.008   0.024  -0.000   0.032
   44        0.008   0.024  -0.000   0.032
   45        0.008   0.024  -0.000   0.031
   46        0.008   0.024  -0.000   0.032
   47        0.008   0.024  -0.000   0.031
   48        0.008   0.024  -0.000   0.031
   49        0.008   0.024  -0.000   0.032
   50        0.007   0.024  -0.000   0.031
   51        0.007   0.024  -0.000   0.031
   52        0.008   0.024  -0.000   0.031
   53        0.008   0.024  -0.000   0.031
   54        0.008   0.027  -0.000   0.035
   55        0.008   0.027  -0.000   0.035
   56        0.007   0.024  -0.000   0.031
   57        0.007   0.024  -0.000   0.031
   58        0.008   0.024  -0.000   0.031
   59        0.007   0.024  -0.000   0.031
   60        0.008   0.024  -0.000   0.031
   61        0.007   0.024  -0.000   0.031
   62        0.007   0.024  -0.000   0.031
   63        0.008   0.027  -0.000   0.035
   64        0.007   0.024  -0.000   0.031
   65        0.008   0.027  -0.000   0.035
--------------------------------------------------
tot          0.153   0.691   0.117   0.961



 magnetization (y)

# of ion       s       p       d       tot
------------------------------------------
    1       -0.003  -0.003   0.004  -0.002
    2       -0.004  -0.003   0.004  -0.003
    3       -0.004  -0.003   0.004  -0.003
    4       -0.004  -0.003   0.004  -0.003
    5       -0.004  -0.003   0.004  -0.003
    6       -0.004  -0.003   0.004  -0.003
    7       -0.004  -0.003   0.004  -0.003
    8       -0.004  -0.003   0.004  -0.003
    9       -0.004  -0.003   0.004  -0.003
   10       -0.003  -0.003   0.004  -0.002
   11       -0.004  -0.003   0.004  -0.003
   12       -0.004  -0.003   0.004  -0.003
   13       -0.004  -0.003   0.004  -0.003
   14       -0.004  -0.003   0.004  -0.003
   15       -0.004  -0.003   0.004  -0.003
   16       -0.004  -0.003   0.004  -0.003
   17       -0.004  -0.003   0.004  -0.003
   18       -0.004  -0.003   0.004  -0.003
   19       -0.004  -0.003   0.004  -0.003
   20       -0.004  -0.003   0.004  -0.003
   21       -0.004  -0.003   0.004  -0.003
   22       -0.003  -0.003   0.004  -0.002
   23       -0.004  -0.003   0.004  -0.003
   24       -0.004  -0.003   0.004  -0.003
   25       -0.004  -0.003   0.004  -0.003
   26       -0.004  -0.003   0.004  -0.003
   27       -0.004  -0.003   0.004  -0.003
   28       -0.004  -0.003   0.004  -0.003
   29       -0.003  -0.003   0.004  -0.002
   30       -0.004  -0.003   0.004  -0.003
   31       -0.004  -0.003   0.004  -0.003
   32       -0.004  -0.003   0.004  -0.003
   33        0.026  -0.003   0.003   0.025
   34        0.007   0.024  -0.000   0.031
   35        0.008   0.027  -0.000   0.035
   36        0.008   0.024  -0.000   0.031
   37        0.007   0.024  -0.000   0.031
   38        0.007   0.024  -0.000   0.031
   39        0.008   0.027  -0.000   0.035
   40        0.008   0.024  -0.000   0.031
   41        0.007   0.024  -0.000   0.031
   42        0.008   0.024  -0.000   0.031
   43        0.008   0.024  -0.000   0.032
   44        0.008   0.024  -0.000   0.032
   45        0.008   0.024  -0.000   0.031
   46        0.008   0.024  -0.000   0.032
   47        0.008   0.024  -0.000   0.031
   48        0.008   0.024  -0.000   0.031
   49        0.008   0.024  -0.000   0.032
   50        0.007   0.024  -0.000   0.031
   51        0.007   0.024  -0.000   0.031
   52        0.008   0.024  -0.000   0.031
   53        0.008   0.024  -0.000   0.031
   54        0.008   0.027  -0.000   0.035
   55        0.008   0.027  -0.000   0.035
   56        0.007   0.024  -0.000   0.031
   57        0.007   0.024  -0.000   0.031
   58        0.008   0.024  -0.000   0.031
   59        0.007   0.024  -0.000   0.031
   60        0.008   0.024  -0.000   0.031
   61        0.007   0.024  -0.000   0.031
   62        0.007   0.024  -0.000   0.031
   63        0.008   0.027  -0.000   0.035
   64        0.007   0.024  -0.000   0.031
   65        0.008   0.027  -0.000   0.035
--------------------------------------------------
tot          0.153   0.691   0.117   0.961



 magnetization (z)

# of ion       s       p       d       tot
------------------------------------------
    1       -0.003  -0.003   0.004  -0.002
    2       -0.004  -0.003   0.004  -0.003
    3       -0.004  -0.003   0.004  -0.003
    4       -0.004  -0.003   0.004  -0.003
    5       -0.004  -0.003   0.004  -0.003
    6       -0.004  -0.003   0.004  -0.003
    7       -0.004  -0.003   0.004  -0.003
    8       -0.004  -0.003   0.004  -0.003
    9       -0.004  -0.003   0.004  -0.003
   10       -0.003  -0.003   0.004  -0.002
   11       -0.004  -0.003   0.004  -0.003
   12       -0.004  -0.003   0.004  -0.003
   13       -0.004  -0.003   0.004  -0.003
   14       -0.004  -0.003   0.004  -0.003
   15       -0.004  -0.003   0.004  -0.003
   16       -0.004  -0.003   0.004  -0.003
   17       -0.004  -0.003   0.004  -0.003
   18       -0.004  -0.003   0.004  -0.003
   19       -0.004  -0.003   0.004  -0.003
   20       -0.004  -0.003   0.004  -0.003
   21       -0.004  -0.003   0.004  -0.003
   22       -0.003  -0.003   0.004  -0.002
   23       -0.004  -0.003   0.004  -0.003
   24       -0.004  -0.003   0.004  -0.003
   25       -0.004  -0.003   0.004  -0.003
   26       -0.004  -0.003   0.004  -0.003
   27       -0.004  -0.003   0.004  -0.003
   28       -0.004  -0.003   0.004  -0.003
   29       -0.003  -0.003   0.004  -0.002
   30       -0.004  -0.003   0.004  -0.003
   31       -0.004  -0.003   0.004  -0.003
   32       -0.004  -0.003   0.004  -0.003
   33        0.026  -0.003   0.002   0.025
   34        0.007   0.024  -0.000   0.031
   35        0.008   0.027  -0.000   0.035
   36        0.008   0.024  -0.000   0.031
   37        0.007   0.024  -0.000   0.031
   38        0.007   0.024  -0.000   0.031
   39        0.008   0.027  -0.000   0.035
   40        0.008   0.024  -0.000   0.031
   41        0.007   0.024  -0.000   0.031
   42        0.008   0.024  -0.000   0.031
   43        0.008   0.024  -0.000   0.032
   44        0.008   0.024  -0.000   0.032
   45        0.008   0.024  -0.000   0.031
   46        0.008   0.024  -0.000   0.032
   47        0.008   0.024  -0.000   0.031
   48        0.008   0.024  -0.000   0.031
   49        0.008   0.024  -0.000   0.032
   50        0.007   0.024  -0.000   0.031
   51        0.007   0.024  -0.000   0.031
   52        0.008   0.024  -0.000   0.031
   53        0.008   0.024  -0.000   0.031
   54        0.008   0.027  -0.000   0.035
   55        0.008   0.027  -0.000   0.035
   56        0.007   0.024  -0.000   0.031
   57        0.007   0.024  -0.000   0.031
   58        0.008   0.024  -0.000   0.031
   59        0.007   0.024  -0.000   0.031
   60        0.008   0.024  -0.000   0.031
   61        0.007   0.024  -0.000   0.031
   62        0.007   0.024  -0.000   0.031
   63        0.008   0.027  -0.000   0.035
   64        0.007   0.024  -0.000   0.031
   65        0.008   0.027  -0.000   0.035
--------------------------------------------------
tot          0.153   0.691   0.117   0.961


 total amount of memory used by VASP MPI-rank0   106150. kBytes
=======================================================================

   base      :      30000. kBytes
   nonl-proj :      20545. kBytes
   fftplans  :      10412. kBytes
   grid      :      23003. kBytes
   one-center:        559. kBytes
   HF        :        129. kBytes
   nonlr-proj:      11281. kBytes
   wavefun   :      10221. kBytes

  
  
 General timing and accounting informations for this job:
 ========================================================
  
                  Total CPU time used (sec):     3256.506
                            User time (sec):     3240.695
                          System time (sec):       15.811
                         Elapsed time (sec):     3319.038
  
                   Maximum memory used (kb):      881948.
                   Average memory used (kb):           0.
  
                          Minor page faults:       993189
                          Major page faults:            0
                 Voluntary context switches:        61126
