 vasp.6.4.2 20Jul23 (build Nov  3 2023 12:13:40) complex                         
 executed on        HPECrayEX_GCC date 2023.11.12  00:13:32
 running 8192 mpi-ranks, with    1 threads/rank, on   64 nodes
 distrk:  each k-point on 4096 cores,    2 groups
 distr:  one band on NCORE=  32 cores,  128 groups


--------------------------------------------------------------------------------------------------------


 INCAR:
   SYSTEM = CdTe
   ISTART = 0
   ICHARG = 2
   LWAVE = .FALSE.
   LCHARG = .FALSE.
   NCSHMEM = 1
   NBLOCK_FOCK = 8
   LSCAAWARE = .TRUE.
   NELMDL = 5
   NELM = 7
   ALGO = All
   ISIF = 2
   LHFCALC = .TRUE.
   AEXX = 0.25
   HFSCREEN = 0.2
   NBANDS = 640
   ENCUT = 450
   PREC = Accurate
   PRECFOCK = Fast
   LASPH = .TRUE.
   LREAL = .FALSE.
   ISMEAR = 0
   SIGMA = 0.05
   LNONCOLLINEAR = .TRUE.
   MAGMOM = 195*0
   NCORE = 32
   KPAR = 2

 POTCAR:    PAW_PBE Cd 06Sep2000                  
 POTCAR:    PAW_PBE Te 08Apr2002                  
 POTCAR:    PAW_PBE Cd 06Sep2000                  
   VRHFIN =Cd : s2 d10                                                                              
   LEXCH  = PE                                                                                      
   EATOM  =  1293.1815 eV,   95.0462 Ry                                                             
                                                                                                    
   TITEL  = PAW_PBE Cd 06Sep2000                                                                    
   LULTRA =        F    use ultrasoft PP ?                                                          
   IUNSCR =        1    unscreen: 0-lin 1-nonlin 2-no                                               
   RPACOR =    2.000    partial core radius                                                         
   POMASS =  112.411; ZVAL   =   12.000    mass and valenz                                          
   RCORE  =    2.300    outmost cutoff radius                                                       
   RWIGS  =    2.980; RWIGS  =    1.577    wigner-seitz radius (au A)                               
   ENMAX  =  274.336; ENMIN  =  205.752 eV                                                          
   RCLOC  =    2.054    cutoff for local pot                                                        
   LCOR   =        T    correct aug charges                                                         
   LPAW   =        T    paw PP                                                                      
   EAUG   =  456.106                                                                                
   DEXC   =    0.000                                                                                
   RMAX   =    2.358    core radius for proj-oper                                                   
   RAUG   =    1.300    factor for augmentation sphere                                              
   RDEP   =    2.450    radius for radial grids                                                     
   RDEPT  =    1.955    core radius for aug-charge                                                  
                                                                                                    
   Atomic configuration                                                                             
   12 entries                                                                                       
     n  l   j            E        occ.                                                              
     1  0  0.50    -26519.7817   2.0000                                                             
     2  0  0.50     -3936.9612   2.0000                                                             
     2  1  1.50     -3532.2230   6.0000                                                             
     3  0  0.50      -733.7908   2.0000                                                             
     3  1  1.50      -601.0792   6.0000                                                             
     3  2  2.50      -393.5307  10.0000                                                             
     4  0  0.50      -105.8977   2.0000                                                             
     4  1  1.50       -66.9488   6.0000                                                             
     4  2  2.50       -11.7331  10.0000                                                             
     5  0  0.50        -5.6592   2.0000                                                             
     5  1  0.50        -1.3606   0.0000                                                             
     4  3  2.50        -1.3606   0.0000                                                             
   Description                                                                                      
     l       E           TYP  RCUT    TYP  RCUT                                                     
     2    -11.7331479     23  2.300                                                                 
     2    -13.0937305     23  2.300                                                                 
     0     -5.6591502     23  2.300                                                                 
     0     -1.5561433     23  2.300                                                                 
     1     -2.7211652     23  2.300                                                                 
     1      8.3548275     23  2.300                                                                 
  local pseudopotential read in
  partial core-charges read in
  partial kinetic energy density read in
  atomic valenz-charges read in
  non local Contribution for L=           2  read in
    real space projection operators read in
  non local Contribution for L=           2  read in
    real space projection operators read in
  non local Contribution for L=           0  read in
    real space projection operators read in
  non local Contribution for L=           0  read in
    real space projection operators read in
  non local Contribution for L=           1  read in
    real space projection operators read in
  non local Contribution for L=           1  read in
    real space projection operators read in
    PAW grid and wavefunctions read in

   number of l-projection  operators is LMAX  =           6
   number of lm-projection operators is LMMAX =          18

 POTCAR:    PAW_PBE Te 08Apr2002                  
   VRHFIN =Te: s2p4                                                                                 
   LEXCH  = PE                                                                                      
   EATOM  =   223.2721 eV,   16.4100 Ry                                                             
                                                                                                    
   TITEL  = PAW_PBE Te 08Apr2002                                                                    
   LULTRA =        F    use ultrasoft PP ?                                                          
   IUNSCR =        1    unscreen: 0-lin 1-nonlin 2-no                                               
   RPACOR =    2.200    partial core radius                                                         
   POMASS =  127.600; ZVAL   =    6.000    mass and valenz                                          
   RCORE  =    2.300    outmost cutoff radius                                                       
   RWIGS  =    2.900; RWIGS  =    1.535    wigner-seitz radius (au A)                               
   ENMAX  =  174.982; ENMIN  =  131.236 eV                                                          
   ICORE  =        3    local potential                                                             
   LCOR   =        T    correct aug charges                                                         
   LPAW   =        T    paw PP                                                                      
   EAUG   =  368.792                                                                                
   DEXC   =    0.000                                                                                
   RMAX   =    2.345    core radius for proj-oper                                                   
   RAUG   =    1.300    factor for augmentation sphere                                              
   RDEP   =    2.397    radius for radial grids                                                     
   RDEPT  =    2.174    core radius for aug-charge                                                  
                                                                                                    
   Atomic configuration                                                                             
   13 entries                                                                                       
     n  l   j            E        occ.                                                              
     1  0  0.50    -31621.2075   2.0000                                                             
     2  0  0.50     -4848.7941   2.0000                                                             
     2  1  1.50     -4352.1960   6.0000                                                             
     3  0  0.50      -964.9612   2.0000                                                             
     3  1  1.50      -803.6179   6.0000                                                             
     3  2  2.50      -559.8710  10.0000                                                             
     4  0  0.50      -164.3522   2.0000                                                             
     4  1  1.50      -114.3756   6.0000                                                             
     4  2  2.50       -41.6483  10.0000                                                             
     5  0  0.50       -15.1072   2.0000                                                             
     5  1  0.50        -5.9526   4.0000                                                             
     5  2  1.50        -5.4423   0.0000                                                             
     4  3  2.50        -5.4423   0.0000                                                             
   Description                                                                                      
     l       E           TYP  RCUT    TYP  RCUT                                                     
     0    -15.1072389     23  2.300                                                                 
     0    -16.4678215     23  2.300                                                                 
     1     -5.9526306     23  2.300                                                                 
     1     -2.4873968     23  2.300                                                                 
     2     -5.4423304     23  2.300                                                                 
     3     -1.3605826     23  2.300                                                                 
  local pseudopotential read in
  partial core-charges read in
  partial kinetic energy density read in
  atomic valenz-charges read in
  non local Contribution for L=           0  read in
    real space projection operators read in
  non local Contribution for L=           0  read in
    real space projection operators read in
  non local Contribution for L=           1  read in
    real space projection operators read in
  non local Contribution for L=           1  read in
    real space projection operators read in
  non local Contribution for L=           2  read in
    real space projection operators read in
    PAW grid and wavefunctions read in

   number of l-projection  operators is LMAX  =           5
   number of lm-projection operators is LMMAX =          13

 -----------------------------------------------------------------------------
|                                                                             |
|               ----> ADVICE to this user running VASP <----                  |
|                                                                             |
|     You have a (more or less) 'large supercell' and for larger cells it     |
|     might be more efficient to use real-space projection operators.         |
|     Therefore, try LREAL= Auto in the INCAR file.                           |
|     Mind: For very accurate calculation, you might also keep the            |
|     reciprocal projection scheme (i.e. LREAL=.FALSE.).                      |
|                                                                             |
 -----------------------------------------------------------------------------

  PAW_PBE Cd 06Sep2000                  :
 energy of atom  1       EATOM=-1293.1815
 kinetic energy error for atom=    0.0084 (will be added to EATOM!!)
  PAW_PBE Te 08Apr2002                  :
 energy of atom  2       EATOM= -223.2721
 kinetic energy error for atom=    0.0008 (will be added to EATOM!!)


 POSCAR: Cd33 Te32
  positions in direct lattice
  No initial velocities read in
 exchange correlation table for  LEXCH =        8
   RHO(1)=    0.500       N(1)  =     2000
   RHO(2)=  100.500       N(2)  =     4000



--------------------------------------------------------------------------------------------------------


 ion  position               nearest neighbor table
   1  0.004  0.996  0.004-  44 2.79  35 2.93  54 2.93  65 2.93  33 2.94
   2  0.001  0.999  0.497-  55 2.82  34 2.82  64 2.82  45 2.84
   3  0.001  0.503  0.001-  63 2.82  56 2.82  37 2.82  42 2.84
   4  1.000  0.501  0.499-  57 2.82  62 2.82  36 2.82  43 2.84
   5  0.497  0.999  0.001-  39 2.82  50 2.82  61 2.82  48 2.84
   6  0.499  0.000  0.499-  38 2.82  51 2.82  60 2.82  49 2.84
   7  0.499  0.501  1.000-  41 2.82  59 2.82  52 2.82  46 2.84
   8  0.501  0.499  0.501-  47 2.82  40 2.83  53 2.83  58 2.83
   9  0.001  0.251  0.253-  54 2.82  34 2.82  62 2.82  42 2.84
  10  0.004  0.254  0.746-  43 2.79  35 2.93  55 2.93  63 2.93  33 2.94
  11  1.000  0.749  0.251-  56 2.82  64 2.82  36 2.82  44 2.84
  12  0.001  0.747  0.749-  65 2.82  57 2.82  37 2.82  45 2.84
  13  0.499  0.250  0.251-  38 2.82  50 2.82  58 2.82  46 2.84
  14  0.497  0.251  0.749-  39 2.82  51 2.82  59 2.82  47 2.84
  15  0.501  0.751  0.249-  48 2.82  40 2.83  52 2.83  60 2.83
  16  0.499  0.749  0.750-  41 2.82  61 2.82  53 2.82  49 2.84
  17  0.251  0.000  0.251-  34 2.82  50 2.82  60 2.82  44 2.84
  18  0.253  0.999  0.749-  35 2.82  51 2.82  61 2.82  45 2.84
  19  0.249  0.499  0.249-  42 2.82  36 2.83  52 2.83  58 2.83
  20  0.251  0.501  0.750-  37 2.82  59 2.82  53 2.82  43 2.84
  21  0.749  0.999  0.253-  54 2.82  38 2.82  64 2.82  48 2.84
  22  0.746  0.996  0.746-  49 2.79  39 2.93  55 2.93  65 2.93  33 2.94
  23  0.750  0.501  0.251-  56 2.82  62 2.82  40 2.82  46 2.84
  24  0.749  0.503  0.749-  63 2.82  57 2.82  41 2.82  47 2.84
  25  0.253  0.251  0.001-  35 2.82  50 2.82  59 2.82  42 2.84
  26  0.251  0.250  0.499-  34 2.82  51 2.82  58 2.82  43 2.84
  27  0.251  0.749  1.000-  37 2.82  61 2.82  52 2.82  44 2.84
  28  0.249  0.751  0.501-  45 2.82  36 2.83  53 2.83  60 2.83
  29  0.746  0.254  0.004-  46 2.79  39 2.93  54 2.93  63 2.93  33 2.94
  30  0.749  0.251  0.497-  55 2.82  38 2.82  62 2.82  47 2.84
  31  0.749  0.747  0.001-  65 2.82  56 2.82  41 2.82  48 2.84
  32  0.750  0.749  0.499-  57 2.82  64 2.82  40 2.82  49 2.84
  33  0.875  0.125  0.875-   1 2.94  10 2.94  22 2.94  29 2.94  35 3.37  39 3.37  54 3.37  55 3.37
                            63 3.37  65 3.37
  34  0.127  0.125  0.375-  17 2.82  26 2.82   2 2.82   9 2.82
  35  0.133  0.125  0.875-  18 2.82  25 2.82  10 2.93   1 2.93  33 3.37
  36  0.126  0.625  0.375-   4 2.82  11 2.82  19 2.83  28 2.83
  37  0.127  0.625  0.875-  20 2.82  27 2.82   3 2.82  12 2.82
  38  0.623  0.125  0.375-  13 2.82   6 2.82  21 2.82  30 2.82
  39  0.617  0.125  0.875-  14 2.82   5 2.82  22 2.93  29 2.93  33 3.37
  40  0.624  0.625  0.375-  23 2.82  32 2.82   8 2.83  15 2.83
  41  0.623  0.625  0.875-   7 2.82  16 2.82  31 2.82  24 2.82
  42  0.125  0.375  0.125-  19 2.82   9 2.84  25 2.84   3 2.84
  43  0.127  0.377  0.623-  10 2.79   4 2.84  26 2.84  20 2.84
  44  0.127  0.873  0.127-   1 2.79  11 2.84  17 2.84  27 2.84
  45  0.125  0.875  0.625-  28 2.82  18 2.84   2 2.84  12 2.84
  46  0.623  0.377  0.127-  29 2.79  13 2.84  23 2.84   7 2.84
  47  0.625  0.375  0.625-   8 2.82  14 2.84  24 2.84  30 2.84
  48  0.625  0.875  0.125-  15 2.82  21 2.84   5 2.84  31 2.84
  49  0.623  0.873  0.623-  22 2.79  32 2.84   6 2.84  16 2.84
  50  0.375  0.125  0.127-  17 2.82  13 2.82   5 2.82  25 2.82
  51  0.375  0.125  0.623-   6 2.82  26 2.82  18 2.82  14 2.82
  52  0.375  0.625  0.126-   7 2.82  27 2.82  19 2.83  15 2.83
  53  0.375  0.625  0.624-  16 2.82  20 2.82   8 2.83  28 2.83
  54  0.875  0.125  0.133-   9 2.82  21 2.82   1 2.93  29 2.93  33 3.37
  55  0.875  0.125  0.617-  30 2.82   2 2.82  22 2.93  10 2.93  33 3.37
  56  0.875  0.625  0.127-  11 2.82  23 2.82   3 2.82  31 2.82
  57  0.875  0.625  0.623-   4 2.82  32 2.82  12 2.82  24 2.82
  58  0.375  0.376  0.375-  26 2.82  13 2.82  19 2.83   8 2.83
  59  0.375  0.377  0.875-   7 2.82  20 2.82  14 2.82  25 2.82
  60  0.375  0.874  0.375-   6 2.82  17 2.82  15 2.83  28 2.83
  61  0.375  0.873  0.875-  16 2.82  27 2.82   5 2.82  18 2.82
  62  0.875  0.377  0.375-   4 2.82  23 2.82   9 2.82  30 2.82
  63  0.875  0.383  0.875-  24 2.82   3 2.82  10 2.93  29 2.93  33 3.37
  64  0.875  0.873  0.375-  11 2.82  32 2.82   2 2.82  21 2.82
  65  0.875  0.867  0.875-  12 2.82  31 2.82   1 2.93  22 2.93  33 3.37

  LATTYP: Found a simple cubic cell.
 ALAT       =    13.0867680000
  
  Lattice vectors:
  
 A1 = (  13.0867680000,   0.0000000000,   0.0000000000)
 A2 = (   0.0000000000,  13.0867680000,   0.0000000000)
 A3 = (   0.0000000000,   0.0000000000,  13.0867680000)


Analysis of symmetry for initial positions (statically):
=====================================================================
 Subroutine PRICEL returns:
 Original cell was already a primitive cell.
 

 Routine SETGRP: Setting up the symmetry group for a 
 simple cubic supercell.


 Subroutine GETGRP returns: Found 24 space group operations
 (whereof  6 operations were pure point group operations)
 out of a pool of 48 trial point group operations.


The static configuration has the point symmetry C_3v.
 The point group associated with its full space group is T_d .


Analysis of symmetry for dynamics (positions and initial velocities):
=====================================================================
 Subroutine PRICEL returns:
 Original cell was already a primitive cell.
 

 Routine SETGRP: Setting up the symmetry group for a 
 simple cubic supercell.


 Subroutine GETGRP returns: Found 24 space group operations
 (whereof  6 operations were pure point group operations)
 out of a pool of 48 trial point group operations.


The dynamic configuration has the point symmetry C_3v.
 The point group associated with its full space group is T_d .


Analysis of structural, dynamic, and magnetic symmetry:
=====================================================================
 Subroutine PRICEL returns:
 Original cell was already a primitive cell.
 

 Routine SETGRP: Setting up the symmetry group for a 
 simple cubic supercell.


 Subroutine GETGRP returns: Found 24 space group operations
 (whereof  6 operations were pure point group operations)
 out of a pool of 48 trial point group operations.


The overall configuration has the point symmetry C_3v.
 The point group associated with its full space group is T_d .


 Subroutine INISYM returns: Found 24 space group operations
 (whereof  6 operations are pure point group operations),
 and found     1 'primitive' translations


----------------------------------------------------------------------------------------

                                     Primitive cell                                     

  volume of cell :    2241.2856

  direct lattice vectors                    reciprocal lattice vectors
    13.086768000  0.000000000  0.000000000     0.076413061  0.000000000  0.000000000
     0.000000000 13.086768000  0.000000000     0.000000000  0.076413061  0.000000000
     0.000000000  0.000000000 13.086768000     0.000000000  0.000000000  0.076413061

  length of vectors
    13.086768000 13.086768000 13.086768000     0.076413061  0.076413061  0.076413061

  position of ions in fractional coordinates (direct lattice)
     0.004485000  0.995515000  0.004485000
     0.001247000  0.998753000  0.496959000
     0.001247000  0.503041000  0.001247000
     0.999625000  0.501218000  0.498782000
     0.496959000  0.998753000  0.001247000
     0.498781000  0.000375000  0.498781000
     0.498781000  0.501219000  0.999625000
     0.500528000  0.499472000  0.500528000
     0.001247000  0.251247000  0.253040000
     0.004486000  0.254485000  0.745515000
     0.999625000  0.748782000  0.251218000
     0.001247000  0.746959000  0.748753000
     0.498782000  0.249625000  0.251219000
     0.496960000  0.251247000  0.748753000
     0.500528000  0.750528000  0.249472000
     0.498781000  0.748781000  0.750375000
     0.251219000  0.000375000  0.251219000
     0.253040000  0.998753000  0.748753000
     0.249472000  0.499472000  0.249472000
     0.251219000  0.501219000  0.750375000
     0.748753000  0.998753000  0.253040000
     0.745514000  0.995515000  0.745515000
     0.750375000  0.501219000  0.251219000
     0.748753000  0.503040000  0.748753000
     0.253040000  0.251247000  0.001247000
     0.251219000  0.249625000  0.498781000
     0.251219000  0.748781000  0.999625000
     0.249472000  0.750528000  0.500528000
     0.745514000  0.254485000  0.004485000
     0.748753000  0.251247000  0.496960000
     0.748753000  0.746959000  0.001247000
     0.750375000  0.748782000  0.498782000
     0.875000000  0.125000000  0.875000000
     0.126656000  0.125000000  0.375000000
     0.132779000  0.125000000  0.875000000
     0.125892000  0.625000000  0.375000000
     0.126656000  0.625000000  0.875000000
     0.623344000  0.125000000  0.375000000
     0.617221000  0.125000000  0.875000000
     0.624108000  0.625000000  0.375000000
     0.623344000  0.625000000  0.875000000
     0.124848000  0.374848000  0.124848000
     0.127488000  0.377488000  0.622512000
     0.127488000  0.872512000  0.127488000
     0.124848000  0.875152000  0.625152000
     0.622512000  0.377488000  0.127488000
     0.625152000  0.374848000  0.625152000
     0.625152000  0.875152000  0.124848000
     0.622512000  0.872512000  0.622512000
     0.375000000  0.125000000  0.126656000
     0.375000000  0.125000000  0.623344000
     0.375000000  0.625000000  0.125892000
     0.375000000  0.625000000  0.624108000
     0.875000000  0.125000000  0.132779000
     0.875000000  0.125000000  0.617221000
     0.875000000  0.625000000  0.126656000
     0.875000000  0.625000000  0.623344000
     0.375000000  0.375892000  0.375000000
     0.375000000  0.376656000  0.875000000
     0.375000000  0.874108000  0.375000000
     0.375000000  0.873344000  0.875000000
     0.875000000  0.376656000  0.375000000
     0.875000000  0.382779000  0.875000000
     0.875000000  0.873344000  0.375000000
     0.875000000  0.867221000  0.875000000

  ion indices of the primitive-cell ions
   primitive index   ion index
                 1           1
                 2           2
                 3           3
                 4           4
                 5           5
                 6           6
                 7           7
                 8           8
                 9           9
                10          10
                11          11
                12          12
                13          13
                14          14
                15          15
                16          16
                17          17
                18          18
                19          19
                20          20
                21          21
                22          22
                23          23
                24          24
                25          25
                26          26
                27          27
                28          28
                29          29
                30          30
                31          31
                32          32
                33          33
                34          34
                35          35
                36          36
                37          37
                38          38
                39          39
                40          40
                41          41
                42          42
                43          43
                44          44
                45          45
                46          46
                47          47
                48          48
                49          49
                50          50
                51          51
                52          52
                53          53
                54          54
                55          55
                56          56
                57          57
                58          58
                59          59
                60          60
                61          61
                62          62
                63          63
                64          64
                65          65

----------------------------------------------------------------------------------------



 KPOINTS: 2x2x2 Gamma                             

Automatic generation of k-mesh.
 Grid dimensions read from file:
 generate k-points for:    2    2    2

 Generating k-lattice:

  Cartesian coordinates                     Fractional coordinates (reciprocal lattice)
     0.038206530  0.000000000  0.000000000     0.500000000  0.000000000  0.000000000
     0.000000000  0.038206530  0.000000000     0.000000000  0.500000000  0.000000000
     0.000000000  0.000000000  0.038206530     0.000000000  0.000000000  0.500000000

  Length of vectors
     0.038206530  0.038206530  0.038206530

  Shift w.r.t. Gamma in fractional coordinates (k-lattice)
     0.500000000  0.500000000  0.500000000

 
 Subroutine IBZKPT returns following result:
 ===========================================
 
 Found      2 irreducible k-points:
 
 Following reciprocal coordinates:
            Coordinates               Weight
  0.250000  0.250000  0.250000      4.000000
 -0.250000 -0.250000 -0.250000      4.000000
 
 Following cartesian coordinates:
            Coordinates               Weight
  0.019103  0.019103  0.019103      4.000000
 -0.019103 -0.019103 -0.019103      4.000000
 
 
 Subroutine IBZKPT_HF returns following result:
 ==============================================
 
 Found      8 k-points in 1st BZ
 the following      8 k-points will be used (e.g. in the exchange kernel)
 Following reciprocal coordinates:   # in IRBZ
  0.250000  0.250000  0.250000    0.12500000   1 t-inv F
 -0.250000 -0.250000 -0.250000    0.12500000   2 t-inv F
  0.250000 -0.250000 -0.250000    0.12500000   1 t-inv F
 -0.250000 -0.250000  0.250000    0.12500000   1 t-inv F
 -0.250000  0.250000 -0.250000    0.12500000   1 t-inv F
 -0.250000  0.250000  0.250000    0.12500000   2 t-inv F
  0.250000  0.250000 -0.250000    0.12500000   2 t-inv F
  0.250000 -0.250000  0.250000    0.12500000   2 t-inv F


--------------------------------------------------------------------------------------------------------




 Dimension of arrays:
   k-points           NKPTS =      2   k-points in BZ     NKDIM =      8   number of bands    NBANDS=    640
   number of dos      NEDOS =    301   number of ions     NIONS =     65
   non local maximal  LDIM  =      6   non local SUM 2l+1 LMDIM =     18
   total plane-waves  NPLWV = 884736
   max r-space proj   IRMAX =      1   max aug-charges    IRDMAX=  23156
   dimension x,y,z NGX =    96 NGY =   96 NGZ =   96
   dimension x,y,z NGXF=   192 NGYF=  192 NGZF=  192
   support grid    NGXF=   192 NGYF=  192 NGZF=  192
   ions per type =              33  32
   NGX,Y,Z   is equivalent  to a cutoff of  12.20, 12.20, 12.20 a.u.
   NGXF,Y,Z  is equivalent  to a cutoff of  24.39, 24.39, 24.39 a.u.

 SYSTEM =  CdTe                                    
 POSCAR =  Cd33 Te32                               

 Startparameter for this run:
   NWRITE =      2    write-flag & timer
   PREC   = accura    normal or accurate (medium, high low for compatibility)
   ISTART =      0    job   : 0-new  1-cont  2-samecut
   ICHARG =      2    charge: 1-file 2-atom 10-const
   ISPIN  =      1    spin polarized calculation?
   LNONCOLLINEAR =      T non collinear calculations
   LSORBIT =      F    spin-orbit coupling
   INIWAV =      1    electr: 0-lowe 1-rand  2-diag
   LASPH  =      T    aspherical Exc in radial PAW
 Electronic Relaxation 1
   ENCUT  =  450.0 eV  33.07 Ry    5.75 a.u.  22.64 22.64 22.64*2*pi/ulx,y,z
   ENINI  =  450.0     initial cutoff
   ENAUG  =  456.1 eV  augmentation charge cutoff
   NELM   =      7;   NELMIN=  2; NELMDL=  5     # of ELM steps 
   EDIFF  = 0.1E-03   stopping-criterion for ELM
   LREAL  =      F    real-space projection
   NLSPLINE    = F    spline interpolate recip. space projectors
   LCOMPAT=      F    compatible to vasp.4.4
   GGA_COMPAT  = T    GGA compatible to vasp.4.4-vasp.4.6
   LMAXPAW     = -100 max onsite density
   LMAXMIX     =    2 max onsite mixed and CHGCAR
   VOSKOWN=      0    Vosko Wilk Nusair interpolation
   ROPT   =    0.00000   0.00000
 Ionic relaxation
   EDIFFG = 0.1E-02   stopping-criterion for IOM
   NSW    =      0    number of steps for IOM
   NBLOCK =      1;   KBLOCK =      1    inner block; outer block 
   IBRION =     -1    ionic relax: 0-MD 1-quasi-New 2-CG
   NFREE  =      0    steps in history (QN), initial steepest desc. (CG)
   ISIF   =      2    stress and relaxation
   IWAVPR =     10    prediction:  0-non 1-charg 2-wave 3-comb
   ISYM   =      3    0-nonsym 1-usesym 2-fastsym
   LCORR  =      T    Harris-Foulkes like correction to forces

   POTIM  = 0.5000    time-step for ionic-motion
   TEIN   =    0.0    initial temperature
   TEBEG  =    0.0;   TEEND  =   0.0 temperature during run
   SMASS  =  -3.00    Nose mass-parameter (am)
   estimated Nose-frequenzy (Omega)   =  0.10E-29 period in steps = 0.13E+47 mass=  -0.391E-26a.u.
   SCALEE = 1.0000    scale energy and forces
   NPACO  =    256;   APACO  = 10.0  distance and # of slots for P.C.
   PSTRESS=    0.0 pullay stress

  Mass of Ions in am
   POMASS = 112.41127.60
  Ionic Valenz
   ZVAL   =  12.00  6.00
  Atomic Wigner-Seitz radii
   RWIGS  =  -1.00 -1.00
  virtual crystal weights 
   VCA    =   1.00  1.00
   NELECT =     588.0000    total number of electrons
   NUPDOWN=      -1.0000    fix difference up-down

 DOS related values:
   EMIN   =  10.00;   EMAX   =-10.00  energy-range for DOS
   EFERMI =   0.00;   METHOD = LEGACY      
   ISMEAR =     0;   SIGMA  =   0.05  broadening in eV -4-tet -1-fermi 0-gaus

 Electronic relaxation 2 (details)
   IALGO  =     58    algorithm
   LDIAG  =      T    sub-space diagonalisation (order eigenvalues)
   LSUBROT=      F    optimize rotation matrix (better conditioning)
   TURBO    =      0    0=normal 1=particle mesh
   IRESTART =      0    0=no restart 2=restart with 2 vectors
   NREBOOT  =      0    no. of reboots
   NMIN     =      0    reboot dimension
   EREF     =   0.00    reference energy to select bands
   IMIX   =      4    mixing-type and parameters
     AMIX     =   0.40;   BMIX     =  1.00
     AMIX_MAG =   1.60;   BMIX_MAG =  1.00
     AMIN     =   0.10
     WC   =   100.;   INIMIX=   1;  MIXPRE=   1;  MAXMIX= -45

 Intra band minimization:
   WEIMIN = 0.0000     energy-eigenvalue tresh-hold
   EBREAK =  0.39E-07  absolut break condition
   DEPER  =   0.30     relativ break condition  

   TIME   =   0.40     timestep for ELM

  volume/ion in A,a.u.               =      34.48       232.69
  Fermi-wavevector in a.u.,A,eV,Ry     =   1.048017  1.980464 14.943809  1.098339
  Thomas-Fermi vector in A             =   2.182921

 Write flags
   LWAVE        =      F    write WAVECAR
   LDOWNSAMPLE  =      F    k-point downsampling of WAVECAR
   LCHARG       =      F    write CHGCAR
   LVTOT        =      F    write LOCPOT, total local potential
   LVHAR        =      F    write LOCPOT, Hartree potential only
   LELF         =      F    write electronic localiz. function (ELF)
   LORBIT       =      0    0 simple, 1 ext, 2 COOP (PROOUT), +10 PAW based schemes


 Dipole corrections
   LMONO  =      F    monopole corrections only (constant potential shift)
   LDIPOL =      F    correct potential (dipole corrections)
   IDIPOL =      0    1-x, 2-y, 3-z, 4-all directions 
   EPSILON=  1.0000000 bulk dielectric constant

 Exchange correlation treatment:
   GGA     =    --    GGA type
   LEXCH   =     8    internal setting for exchange type
   LIBXC   =     F    Libxc                    
   VOSKOWN =     0    Vosko Wilk Nusair interpolation
   EXXOEP  =     0    0=HF, 1=EXX-LHF (local Hartree Fock) 2=EXX OEP
   LHFCALC =     T    Hartree Fock is set to
   LSYMGRAD=     F    symmetrize gradient (conserves proper symmetry)
   PRECFOCK=fast      Normal, Fast or Accurate (Low or Medium for compatibility)
   LRHFCALC=     F    long range Hartree Fock
   LRSCOR  =     F    long range correlation only (use DFT for short range part)
   LTHOMAS =     F    Thomas Fermi screening in HF
   LMODELHF=     F    short range full HF, long range fraction AEXX
   FOCKCORR=     1    mode to apply convergence corrections
   LFOCKACE=     T    use Adeptively-Compressed-Exchange operator
   ENCUT4O =  -1.0   cutoff for four orbital integrals eV
   LMAXFOCK=     4    L truncation for augmentation on plane wave grid
   LMAXFOCKAE=  -1    L truncation for all-electron charge restoration on plane wave grid
   NMAXFOCKAE=   1    number of basis functions for all-electron charge restoration
   LFOCKAEDFT=     F  apply the AE augmentation even for DFT
   NKREDX  =     1    reduce k-point grid by
   NKREDY  =     1    reduce k-point grid by
   NKREDZ  =     1    reduce k-point grid by
   SHIFTRED=     F    shift reduced grid of Gamma
   HFKIDENT=     F    idential grid for each k-point
   ODDONLY =     F    use only odd q-grid points
   EVENONLY=     F    use only even q-grid points
   HFALPHA =   -1.0000 decay constant for conv. correction
   MCALPHA =    0.0000 extent of test-charge in conv. correction in multipole expansion
   AEXX    =    0.2500 exact exchange contribution
   HFSCREEN=    0.2000 screening length (either q_TF or 0.3 A-1)
   HFSCREENC=   0.2000 screening length for correlation (either q_TF or 0.3 A-1)
   HFRCUT  =    0.0000 spherical cutoff for potential kernel
   ALDAX   =    0.7500 LDA exchange part
   AGGAX   =    0.7500 GGA exchange part
   ALDAC   =    1.0000 LDA correlation
   AGGAC   =    1.0000 GGA correlation
   ENCUTFOCK=  -1.0 apply spherical cutoff to Coloumb kernel
   NBANDSGWLOW=     1    first orbital included in HF term
   NBLOCK_FOCK=     8    blocking factor in FOCK_ACC

 Linear response parameters
   LEPSILON=     F    determine dielectric tensor
   LRPA    =     F    only Hartree local field effects (RPA)
   LNABLA  =     F    use nabla operator in PAW spheres
   LVEL    =     F    velocity operator in full k-point grid
   CSHIFT  =0.1000    complex shift for real part using Kramers Kronig
   OMEGAMAX=  -1.0    maximum frequency
   DEG_THRESHOLD= 0.2000000E-02 threshold for treating states as degnerate
   RTIME   =   -0.100 relaxation time in fs
  (WPLASMAI=    0.000 imaginary part of plasma frequency in eV, 0.658/RTIME)
   DFIELD  = 0.0000000 0.0000000 0.0000000 field for delta impulse in time

  Optional k-point grid parameters
   LKPOINTS_OPT  =     F    use optional k-point grid
   KPOINTS_OPT_MODE=     1    mode for optional k-point grid

 Orbital magnetization related:
   ORBITALMAG=     F  switch on orbital magnetization
   LCHIMAG   =     F  perturbation theory with respect to B field
   DQ        =  0.001000  dq finite difference perturbation B field
   LLRAUG    =     F  two centre corrections for induced B field
   LBONE     =     F  B-component reconstruction in AE one-centre
   LVGVCALC  =     T  calculate vGv susceptibility
   LVGVAPPL  =     F  apply vGv susceptibility instead of pGv for G=0

 Random number generation:
   RANDOM_GENERATOR = DEFAULT
   PCG_SEED         = not used


--------------------------------------------------------------------------------------------------------


 Static calculation
 charge density and potential will be updated during run
 non collinear spin polarized calculation
 Conjugate gradient for all bands (Freysoldt, et al. PRB 79, 241103 (2009))
 preconditioned conjugated gradient                                        
 perform sub-space diagonalisation
    before iterative eigenvector-optimisation
 modified Broyden-mixing scheme, WC =      100.0
 initial mixing is a Kerker type mixing with AMIX =  0.4000 and BMIX =      1.0000
 Hartree-type preconditioning will be used
 using additional bands          346
 reciprocal scheme for non local part
 use partial core corrections
 no Harris-corrections to forces 
 use gradient corrections 
 use of overlap-Matrix (Vanderbilt PP)
 Gauss-broadening in eV      SIGMA  =   0.05


--------------------------------------------------------------------------------------------------------


  energy-cutoff  :      450.00
  volume of cell :     2241.29
      direct lattice vectors                 reciprocal lattice vectors
    13.086768000  0.000000000  0.000000000     0.076413061  0.000000000  0.000000000
     0.000000000 13.086768000  0.000000000     0.000000000  0.076413061  0.000000000
     0.000000000  0.000000000 13.086768000     0.000000000  0.000000000  0.076413061

  length of vectors
    13.086768000 13.086768000 13.086768000     0.076413061  0.076413061  0.076413061



 k-points in units of 2pi/SCALE and weight: 2x2x2 Gamma                             
   0.01910327  0.01910327  0.01910327       0.500
  -0.01910327 -0.01910327 -0.01910327       0.500

 k-points in reciprocal lattice and weights: 2x2x2 Gamma                             
   0.25000000  0.25000000  0.25000000       0.500
  -0.25000000 -0.25000000 -0.25000000       0.500

 position of ions in fractional coordinates (direct lattice) 
   0.00448500  0.99551500  0.00448500
   0.00124700  0.99875300  0.49695900
   0.00124700  0.50304100  0.00124700
   0.99962500  0.50121800  0.49878200
   0.49695900  0.99875300  0.00124700
   0.49878100  0.00037500  0.49878100
   0.49878100  0.50121900  0.99962500
   0.50052800  0.49947200  0.50052800
   0.00124700  0.25124700  0.25304000
   0.00448600  0.25448500  0.74551500
   0.99962500  0.74878200  0.25121800
   0.00124700  0.74695900  0.74875300
   0.49878200  0.24962500  0.25121900
   0.49696000  0.25124700  0.74875300
   0.50052800  0.75052800  0.24947200
   0.49878100  0.74878100  0.75037500
   0.25121900  0.00037500  0.25121900
   0.25304000  0.99875300  0.74875300
   0.24947200  0.49947200  0.24947200
   0.25121900  0.50121900  0.75037500
   0.74875300  0.99875300  0.25304000
   0.74551400  0.99551500  0.74551500
   0.75037500  0.50121900  0.25121900
   0.74875300  0.50304000  0.74875300
   0.25304000  0.25124700  0.00124700
   0.25121900  0.24962500  0.49878100
   0.25121900  0.74878100  0.99962500
   0.24947200  0.75052800  0.50052800
   0.74551400  0.25448500  0.00448500
   0.74875300  0.25124700  0.49696000
   0.74875300  0.74695900  0.00124700
   0.75037500  0.74878200  0.49878200
   0.87500000  0.12500000  0.87500000
   0.12665600  0.12500000  0.37500000
   0.13277900  0.12500000  0.87500000
   0.12589200  0.62500000  0.37500000
   0.12665600  0.62500000  0.87500000
   0.62334400  0.12500000  0.37500000
   0.61722100  0.12500000  0.87500000
   0.62410800  0.62500000  0.37500000
   0.62334400  0.62500000  0.87500000
   0.12484800  0.37484800  0.12484800
   0.12748800  0.37748800  0.62251200
   0.12748800  0.87251200  0.12748800
   0.12484800  0.87515200  0.62515200
   0.62251200  0.37748800  0.12748800
   0.62515200  0.37484800  0.62515200
   0.62515200  0.87515200  0.12484800
   0.62251200  0.87251200  0.62251200
   0.37500000  0.12500000  0.12665600
   0.37500000  0.12500000  0.62334400
   0.37500000  0.62500000  0.12589200
   0.37500000  0.62500000  0.62410800
   0.87500000  0.12500000  0.13277900
   0.87500000  0.12500000  0.61722100
   0.87500000  0.62500000  0.12665600
   0.87500000  0.62500000  0.62334400
   0.37500000  0.37589200  0.37500000
   0.37500000  0.37665600  0.87500000
   0.37500000  0.87410800  0.37500000
   0.37500000  0.87334400  0.87500000
   0.87500000  0.37665600  0.37500000
   0.87500000  0.38277900  0.87500000
   0.87500000  0.87334400  0.37500000
   0.87500000  0.86722100  0.87500000

 position of ions in cartesian coordinates  (Angst):
   0.05869415 13.02807385  0.05869415
   0.01631920 13.07044880  6.50358714
   0.01631920  6.58318086  0.01631920
  13.08186046  6.55932368  6.52744432
   6.50358714 13.07044880  0.01631920
   6.52743123  0.00490754  6.52743123
   6.52743123  6.55933677 13.08186046
   6.55029381  6.53647419  6.55029381
   0.01631920  3.28801120  3.31147577
   0.05870724  3.33038615  9.75638185
  13.08186046  9.79913632  3.28763168
   0.01631920  9.77527914  9.79875680
   6.52744432  3.26678446  3.28764477
   6.50360023  3.28801120  9.79875680
   6.55029381  9.82198581  3.26478219
   6.52743123  9.79912323  9.81998354
   3.28764477  0.00490754  3.28764477
   3.31147577 13.07044880  9.79875680
   3.26478219  6.53647419  3.26478219
   3.28764477  6.55933677  9.81998354
   9.79875680 13.07044880  3.31147577
   9.75636876 13.02807385  9.75638185
   9.81998354  6.55933677  3.28764477
   9.79875680  6.58316777  9.79875680
   3.31147577  3.28801120  0.01631920
   3.28764477  3.26678446  6.52743123
   3.28764477  9.79912323 13.08186046
   3.26478219  9.82198581  6.55029381
   9.75636876  3.33038615  0.05869415
   9.79875680  3.28801120  6.50360023
   9.79875680  9.77527914  0.01631920
   9.81998354  9.79913632  6.52744432
  11.45092200  1.63584600 11.45092200
   1.65751769  1.63584600  4.90753800
   1.73764797  1.63584600 11.45092200
   1.64751940  8.17923000  4.90753800
   1.65751769  8.17923000 11.45092200
   8.15755831  1.63584600  4.90753800
   8.07742803  1.63584600 11.45092200
   8.16755660  8.17923000  4.90753800
   8.15755831  8.17923000 11.45092200
   1.63385681  4.90554881  1.63385681
   1.66840588  4.94009788  8.14667012
   1.66840588 11.41836212  1.66840588
   1.63385681 11.45291119  8.18121919
   8.14667012  4.94009788  1.66840588
   8.18121919  4.90554881  8.18121919
   8.18121919 11.45291119  1.63385681
   8.14667012 11.41836212  8.14667012
   4.90753800  1.63584600  1.65751769
   4.90753800  1.63584600  8.15755831
   4.90753800  8.17923000  1.64751940
   4.90753800  8.17923000  8.16755660
  11.45092200  1.63584600  1.73764797
  11.45092200  1.63584600  8.07742803
  11.45092200  8.17923000  1.65751769
  11.45092200  8.17923000  8.15755831
   4.90753800  4.91921140  4.90753800
   4.90753800  4.92920969 11.45092200
   4.90753800 11.43924860  4.90753800
   4.90753800 11.42925031 11.45092200
  11.45092200  4.92920969  4.90753800
  11.45092200  5.00933997 11.45092200
  11.45092200 11.42925031  4.90753800
  11.45092200 11.34912003 11.45092200

 Euler angles ALPHA=     0.0000000  BETA=     0.0000000

 transformation matrix from SAXIS to cartesian coordinates
 ---------------------------------------------------------
     1.0000000 m_x    -0.0000000 m_y     0.0000000 m_z
     0.0000000 m_x     1.0000000 m_y     0.0000000 m_z
    -0.0000000 m_x     0.0000000 m_y     1.0000000 m_z

 transformation matrix from cartesian coordinates to SAXIS
 ---------------------------------------------------------
     1.0000000 m_x     0.0000000 m_y    -0.0000000 m_z
    -0.0000000 m_x     1.0000000 m_y     0.0000000 m_z
     0.0000000 m_x     0.0000000 m_y     1.0000000 m_z




--------------------------------------------------------------------------------------------------------


 k-point   1 :   0.2500 0.2500 0.2500  plane waves:   97156
 k-point   2 :  -0.2500-0.2500-0.2500  plane waves:   97156

 maximum and minimum number of plane-waves per node :      3094     2978

 maximum number of plane-waves:     97156
 maximum index in each direction: 
   IXMAX=   22   IYMAX=   22   IZMAX=   22
   IXMIN=  -22   IYMIN=  -22   IZMIN=  -22


 parallel 3D FFT for wavefunctions:
    minimum data exchange during FFTs selected (reduces bandwidth)
 parallel 3D FFT for charge:
    minimum data exchange during FFTs selected (reduces bandwidth)


 FFT grid for exact exchange (Hartree Fock) 
  NGX = 48; NGY = 48; NGZ = 48


 Radii for the augmentation spheres in the non-local exchange
 for species   1 augmentation radius   1.444 (default was   1.070)
       energy cutoff for augmentation   1800.0
 for species   2 augmentation radius   1.606 (default was   1.190)
       energy cutoff for augmentation   1800.0

 real space projection operators:
  total allocation   :       9375.20 KBytes
  max/ min on nodes  :        432.62        141.21

 Maximum index for augmentation-charges in exchange           97
  SETUP_FOCK is finished

 total amount of memory used by VASP MPI-rank0    52849. kBytes
=======================================================================

   base      :      30000. kBytes
   nonl-proj :       2689. kBytes
   fftplans  :       4316. kBytes
   grid      :      12386. kBytes
   one-center:        186. kBytes
   HF        :        129. kBytes
   nonlr-proj:       1424. kBytes
   wavefun   :       1719. kBytes

     INWAV:  cpu time      0.0000: real time      0.0000
 Broyden mixing: mesh for mixing (old mesh)
   NGX = 45   NGY = 45   NGZ = 45
  (NGX  =192   NGY  =192   NGZ  =192)
  gives a total of  91125 points

 initial charge density was supplied:
 charge density of overlapping atoms calculated
 number of electron     588.0000000 magnetization       0.0000000      0.0000000      0.0000000
 keeping initial charge density in first step


--------------------------------------------------------------------------------------------------------


 Maximum index for augmentation-charges          775 (set IRDMAX)


--------------------------------------------------------------------------------------------------------


 First call to EWALD:  gamma=   0.135
 Maximum number of real-space cells 3x 3x 3
 Maximum number of reciprocal cells 3x 3x 3

    FEWALD:  cpu time      0.0061: real time      0.0062


--------------------------------------- Ionic step        1  -------------------------------------------




--------------------------------------- Iteration      1(   1)  ---------------------------------------


    POTLOK:  cpu time      2.5672: real time      2.5686
    SETDIJ:  cpu time      0.7111: real time      0.7114
    TRIAL :  cpu time    344.1511: real time    344.3013
    CORREC:  cpu time      0.0017: real time      0.0017
    --------------------------------------------
      LOOP:  cpu time    347.4491: real time    347.6010

 eigenvalue-minimisations  :  2560
 total energy-change (2. order) :-0.6563282E+05  (-0.2612724E+05)
 number of electron     588.0000000 magnetization       0.0000000      0.0000000      0.0000000
 augmentation part      588.0000000 magnetization       0.0000000      0.0000000      0.0000000

 Free energy of the ion-electron system (eV)
  ---------------------------------------------------
  alpha Z        PSCENC =      1642.45118531
  Ewald energy   TEWEN  =    -33940.17512420
  -Hartree energ DENC   =    -17077.89199325
  -exchange      EXHF   =         0.00000000
  -V(xc)+E(xc)   XCENC  =      -720.79451392
  PAW double counting   =     46138.45347506  -111612.37425480
  entropy T*S    EENTRO =        -0.01735328
  eigenvalues    EBANDS =       188.09992177
  atomic energy  EATOM  =     49749.42546354
  ---------------------------------------------------
  free energy    TOTEN  =    -65632.82319376 eV

  energy without entropy =   -65632.80584049  energy(sigma->0) =   -65632.81451712
  exchange ACFDT corr.  =         0.00000000  see jH, gK, PRB 81, 115126


--------------------------------------------------------------------------------------------------------




--------------------------------------- Iteration      1(   2)  ---------------------------------------


    TRIAL :  cpu time      5.7426: real time      5.7450
    CORREC:  cpu time      0.0016: real time      0.0016
    --------------------------------------------
      LOOP:  cpu time      5.7809: real time      5.8059

 eigenvalue-minimisations  :  2944
 total energy-change (2. order) :-0.3637481E+04  (-0.3621561E+04)
 number of electron     588.0000000 magnetization       0.0000000      0.0000000      0.0000000
 augmentation part      588.0000000 magnetization       0.0000000      0.0000000      0.0000000

 Free energy of the ion-electron system (eV)
  ---------------------------------------------------
  alpha Z        PSCENC =      1642.45118531
  Ewald energy   TEWEN  =    -33940.17512420
  -Hartree energ DENC   =    -17077.89199325
  -exchange      EXHF   =         0.00000000
  -V(xc)+E(xc)   XCENC  =      -720.79451392
  PAW double counting   =     46138.45347506  -111612.37425480
  entropy T*S    EENTRO =        -0.00548665
  eigenvalues    EBANDS =     -3449.39252449
  atomic energy  EATOM  =     49749.42546354
  ---------------------------------------------------
  free energy    TOTEN  =    -69270.30377339 eV

  energy without entropy =   -69270.29828674  energy(sigma->0) =   -69270.30103007
  exchange ACFDT corr.  =         0.00000000  see jH, gK, PRB 81, 115126


--------------------------------------------------------------------------------------------------------




--------------------------------------- Iteration      1(   3)  ---------------------------------------


    TRIAL :  cpu time      5.6257: real time      5.6286
    CORREC:  cpu time      0.0006: real time      0.0006
    --------------------------------------------
      LOOP:  cpu time      5.6585: real time      5.6837

 eigenvalue-minimisations  :  2944
 total energy-change (2. order) :-0.2037107E+03  (-0.2034660E+03)
 number of electron     588.0000000 magnetization       0.0000000      0.0000000      0.0000000
 augmentation part      588.0000000 magnetization       0.0000000      0.0000000      0.0000000

 Free energy of the ion-electron system (eV)
  ---------------------------------------------------
  alpha Z        PSCENC =      1642.45118531
  Ewald energy   TEWEN  =    -33940.17512420
  -Hartree energ DENC   =    -17077.89199325
  -exchange      EXHF   =         0.00000000
  -V(xc)+E(xc)   XCENC  =      -720.79451392
  PAW double counting   =     46138.45347506  -111612.37425480
  entropy T*S    EENTRO =        -0.00000000
  eigenvalues    EBANDS =     -3653.10869929
  atomic energy  EATOM  =     49749.42546354
  ---------------------------------------------------
  free energy    TOTEN  =    -69474.01446154 eV

  energy without entropy =   -69474.01446154  energy(sigma->0) =   -69474.01446154
  exchange ACFDT corr.  =         0.00000000  see jH, gK, PRB 81, 115126


--------------------------------------------------------------------------------------------------------




--------------------------------------- Iteration      1(   4)  ---------------------------------------


    TRIAL :  cpu time      8.1422: real time      8.1460
    CORREC:  cpu time      0.0006: real time      0.0006
    --------------------------------------------
      LOOP:  cpu time      8.1749: real time      8.1995

 eigenvalue-minimisations  :  3712
 total energy-change (2. order) :-0.5547367E+01  (-0.5545588E+01)
 number of electron     588.0000000 magnetization       0.0000000      0.0000000      0.0000000
 augmentation part      588.0000000 magnetization       0.0000000      0.0000000      0.0000000

 Free energy of the ion-electron system (eV)
  ---------------------------------------------------
  alpha Z        PSCENC =      1642.45118531
  Ewald energy   TEWEN  =    -33940.17512420
  -Hartree energ DENC   =    -17077.89199325
  -exchange      EXHF   =         0.00000000
  -V(xc)+E(xc)   XCENC  =      -720.79451392
  PAW double counting   =     46138.45347506  -111612.37425480
  entropy T*S    EENTRO =        -0.00000000
  eigenvalues    EBANDS =     -3658.65606610
  atomic energy  EATOM  =     49749.42546354
  ---------------------------------------------------
  free energy    TOTEN  =    -69479.56182835 eV

  energy without entropy =   -69479.56182835  energy(sigma->0) =   -69479.56182835
  exchange ACFDT corr.  =         0.00000000  see jH, gK, PRB 81, 115126


--------------------------------------------------------------------------------------------------------




--------------------------------------- Iteration      1(   5)  ---------------------------------------


    POTLOK:  cpu time      2.3075: real time      2.3083
    SETDIJ:  cpu time      1.9254: real time      1.9262
 -----------------------------------------------------------------------------
|                                                                             |
|     EEEEEEE  RRRRRR   RRRRRR   OOOOOOO  RRRRRR      ###     ###     ###     |
|     E        R     R  R     R  O     O  R     R     ###     ###     ###     |
|     E        R     R  R     R  O     O  R     R     ###     ###     ###     |
|     EEEEE    RRRRRR   RRRRRR   O     O  RRRRRR       #       #       #      |
|     E        R   R    R   R    O     O  R   R                               |
|     E        R    R   R    R   O     O  R    R      ###     ###     ###     |
|     EEEEEEE  R     R  R     R  OOOOOOO  R     R     ###     ###     ###     |
|                                                                             |
|     Error EDDDAV: Call to ZHEGV failed. Returncode = 127 1 128              |
|                                                                             |
|       ---->  I REFUSE TO CONTINUE WITH THIS SICK JOB ... BYE!!! <----       |
|                                                                             |
 -----------------------------------------------------------------------------

++++ Slurm JobID = 4844140

Lmod is automatically replacing "cce/15.0.0" with "gcc/11.2.0".


Lmod is automatically replacing "PrgEnv-cray/8.3.3" with "PrgEnv-gnu/8.3.3".


Due to MODULEPATH changes, the following have been reloaded:
  1) cray-mpich/8.1.23

	linux-vdso.so.1 (0x0000147af65bf000)
	libstdc++.so.6 => /opt/cray/pe/gcc-libs/libstdc++.so.6 (0x0000147af5f85000)
	libhdf5_fortran_parallel_gnu_91.so.200 => /opt/cray/pe/hdf5-parallel/1.12.2.1/gnu/9.1/lib/libhdf5_fortran_parallel_gnu_91.so.200 (0x0000147af5d32000)
	libdl.so.2 => /lib64/libdl.so.2 (0x0000147af5b2e000)
	libfftw3_omp.so.mpi31.3 => /opt/cray/pe/fftw/3.3.10.3/x86_rome/lib/libfftw3_omp.so.mpi31.3 (0x0000147af5927000)
	libsci_gnu_82_mpi_mp.so.5 => /opt/cray/pe/libsci/22.12.1.1/GNU/9.1/x86_64/lib/libsci_gnu_82_mpi_mp.so.5 (0x0000147af51a8000)
	libsci_gnu_82_mp.so.5 => /opt/cray/pe/libsci/22.12.1.1/GNU/9.1/x86_64/lib/libsci_gnu_82_mp.so.5 (0x0000147af1a34000)
	libmpifort_gnu_91.so.12 => /opt/cray/pe/mpich/8.1.23/ofi/gnu/9.1/lib/libmpifort_gnu_91.so.12 (0x0000147af17b0000)
	libxpmem.so.0 => /opt/cray/xpmem/default/lib64/libxpmem.so.0 (0x0000147af659f000)
	libgfortran.so.5 => /opt/cray/pe/gcc-libs/libgfortran.so.5 (0x0000147af1304000)
	libquadmath.so.0 => /opt/cray/pe/gcc-libs/libquadmath.so.0 (0x0000147af10bd000)
	libpthread.so.0 => /lib64/libpthread.so.0 (0x0000147af0e9a000)
	libm.so.6 => /lib64/libm.so.6 (0x0000147af0b4f000)
	libmvec.so.1 => /lib64/libmvec.so.1 (0x0000147af0924000)
	libgomp.so.1 => /opt/cray/pe/gcc-libs/libgomp.so.1 (0x0000147af06e1000)
	libgcc_s.so.1 => /opt/cray/pe/gcc-libs/libgcc_s.so.1 (0x0000147af04c8000)
	libc.so.6 => /lib64/libc.so.6 (0x0000147af00d3000)
	/lib64/ld-linux-x86-64.so.2 (0x0000147af6397000)
	libhdf5_parallel_gnu_91.so.200 => /opt/cray/pe/hdf5-parallel/1.12.2.1/gnu/9.1/lib/libhdf5_parallel_gnu_91.so.200 (0x0000147aefa56000)
	libfftw3.so.mpi31.3 => /opt/cray/pe/fftw/3.3.10.3/x86_rome/lib/libfftw3.so.mpi31.3 (0x0000147aef551000)
	libmpi_gnu_91.so.12 => /opt/cray/pe/mpich/8.1.23/ofi/gnu/9.1/lib/libmpi_gnu_91.so.12 (0x0000147aec9cc000)
	libfabric.so.1 => /opt/cray/libfabric/1.12.1.2.2.0.0/lib64/libfabric.so.1 (0x0000147aec71c000)
	libatomic.so.1 => /opt/cray/pe/gcc-libs/libatomic.so.1 (0x0000147aec514000)
	librt.so.1 => /lib64/librt.so.1 (0x0000147aec30b000)
	libpmi.so.0 => /opt/cray/pe/lib64/libpmi.so.0 (0x0000147aec109000)
	libpmi2.so.0 => /opt/cray/pe/lib64/libpmi2.so.0 (0x0000147aebed0000)
	libz.so.1 => /lib64/libz.so.1 (0x0000147aebcb9000)
	librdmacm.so.1 => /usr/lib64/librdmacm.so.1 (0x0000147aeba99000)
	libibverbs.so.1 => /usr/lib64/libibverbs.so.1 (0x0000147aeb879000)
	libpals.so.0 => /opt/cray/pe/lib64/libpals.so.0 (0x0000147aeb674000)
	libnl-3.so.200 => /usr/lib64/libnl-3.so.200 (0x0000147aeb452000)
	libnl-route-3.so.200 => /usr/lib64/libnl-route-3.so.200 (0x0000147aeb1dc000)
rm: cannot remove 'WAVECAR': No such file or directory
 running 8192 mpi-ranks, with    1 threads/rank, on   64 nodes
 distrk:  each k-point on 4096 cores,    2 groups
 distr:  one band on   32 cores,  128 groups
 vasp.6.4.2 20Jul23 (build Nov  3 2023 12:13:40) complex                         
 POSCAR found type information on POSCAR CdTe
 POSCAR found :  2 types and      65 ions
 Reading from existing POTCAR
 scaLAPACK will be used
 Reading from existing POTCAR
 -----------------------------------------------------------------------------
|                                                                             |
|               ----> ADVICE to this user running VASP <----                  |
|                                                                             |
|     You have a (more or less) 'large supercell' and for larger cells it     |
|     might be more efficient to use real-space projection operators.         |
|     Therefore, try LREAL= Auto in the INCAR file.                           |
|     Mind: For very accurate calculation, you might also keep the            |
|     reciprocal projection scheme (i.e. LREAL=.FALSE.).                      |
|                                                                             |
 -----------------------------------------------------------------------------

 LDA part: xc-table for Pade appr. of Perdew
 POSCAR, INCAR and KPOINTS ok, starting setup
 FFT: planning ... GRIDC
 FFT: planning ... GRID_SOFT
 FFT: planning ... GRID
 WAVECAR not read
 entering main loop
       N       E                     dE             d eps       ncg     rms          ort
DAV:   1    -0.656328231938E+05   -0.65633E+05   -0.26127E+05  1280   0.146E+03
DAV:   2    -0.692703037734E+05   -0.36375E+04   -0.36216E+04  1280   0.350E+02
DAV:   3    -0.694740144615E+05   -0.20371E+03   -0.20347E+03  1280   0.801E+01
DAV:   4    -0.694795618284E+05   -0.55474E+01   -0.55456E+01  1280   0.114E+01
 -----------------------------------------------------------------------------
|                                                                             |
|     EEEEEEE  RRRRRR   RRRRRR   OOOOOOO  RRRRRR      ###     ###     ###     |
|     E        R     R  R     R  O     O  R     R     ###     ###     ###     |
|     E        R     R  R     R  O     O  R     R     ###     ###     ###     |
|     EEEEE    RRRRRR   RRRRRR   O     O  RRRRRR       #       #       #      |
|     E        R   R    R   R    O     O  R   R                               |
|     E        R    R   R    R   O     O  R    R      ###     ###     ###     |
|     EEEEEEE  R     R  R     R  OOOOOOO  R     R     ###     ###     ###     |
|                                                                             |
|     Error EDDDAV: Call to ZHEGV failed. Returncode = 127 1 128              |
|                                                                             |
|       ---->  I REFUSE TO CONTINUE WITH THIS SICK JOB ... BYE!!! <----       |
|                                                                             |
 -----------------------------------------------------------------------------

MPICH ERROR [Rank 4739] [job id 4844140.0] [Sun Nov 12 00:29:04 2023] [nid005271] - Abort(1) (rank 4739 in comm 0): application called MPI_Abort(MPI_COMM_WORLD, 1) - process 4739

aborting job:
application called MPI_Abort(MPI_COMM_WORLD, 1) - process 4739
MPICH ERROR [Rank 2482] [job id 4844140.0] [Sun Nov 12 00:29:04 2023] [nid003479] - Abort(1) (rank 2482 in comm 0): application called MPI_Abort(MPI_COMM_WORLD, 1) - process 2482

aborting job:
application called MPI_Abort(MPI_COMM_WORLD, 1) - process 2482
MPICH ERROR [Rank 4741] [job id 4844140.0] [Sun Nov 12 00:29:04 2023] [nid005271] - Abort(1) (rank 4741 in comm 0): application called MPI_Abort(MPI_COMM_WORLD, 1) - process 4741

aborting job:
application called MPI_Abort(MPI_COMM_WORLD, 1) - process 4741
MPICH ERROR [Rank 2484] [job id 4844140.0] [Sun Nov 12 00:29:04 2023] [nid003479] - Abort(1) (rank 2484 in comm 0): application called MPI_Abort(MPI_COMM_WORLD, 1) - process 2484

aborting job:
application called MPI_Abort(MPI_COMM_WORLD, 1) - process 2484
MPICH ERROR [Rank 4773] [job id 4844140.0] [Sun Nov 12 00:29:04 2023] [nid005271] - Abort(1) (rank 4773 in comm 0): application called MPI_Abort(MPI_COMM_WORLD, 1) - process 4773

aborting job:
application called MPI_Abort(MPI_COMM_WORLD, 1) - process 4773
MPICH ERROR [Rank 4807] [job id 4844140.0] [Sun Nov 12 00:29:04 2023] [nid005271] - Abort(1) (rank 4807 in comm 0): application called MPI_Abort(MPI_COMM_WORLD, 1) - process 4807

aborting job:
application called MPI_Abort(MPI_COMM_WORLD, 1) - process 4807
MPICH ERROR [Rank 2435] [job id 4844140.0] [Sun Nov 12 00:29:04 2023] [nid003479] - Abort(1) (rank 2435 in comm 0): application called MPI_Abort(MPI_COMM_WORLD, 1) - process 2435

aborting job:
application called MPI_Abort(MPI_COMM_WORLD, 1) - process 2435
MPICH ERROR [Rank 4823] [job id 4844140.0] [Sun Nov 12 00:29:04 2023] [nid005271] - Abort(1) (rank 4823 in comm 0): application called MPI_Abort(MPI_COMM_WORLD, 1) - process 4823

aborting job:
application called MPI_Abort(MPI_COMM_WORLD, 1) - process 4823
MPICH ERROR [Rank 2441] [job id 4844140.0] [Sun Nov 12 00:29:04 2023] [nid003479] - Abort(1) (rank 2441 in comm 0): application called MPI_Abort(MPI_COMM_WORLD, 1) - process 2441

aborting job:
application called MPI_Abort(MPI_COMM_WORLD, 1) - process 2441
MPICH ERROR [Rank 4860] [job id 4844140.0] [Sun Nov 12 00:29:04 2023] [nid005271] - Abort(1) (rank 4860 in comm 0): application called MPI_Abort(MPI_COMM_WORLD, 1) - process 4860

aborting job:
application called MPI_Abort(MPI_COMM_WORLD, 1) - process 4860
MPICH ERROR [Rank 2444] [job id 4844140.0] [Sun Nov 12 00:29:04 2023] [nid003479] - Abort(1) (rank 2444 in comm 0): application called MPI_Abort(MPI_COMM_WORLD, 1) - process 2444

aborting job:
application called MPI_Abort(MPI_COMM_WORLD, 1) - process 2444
MPICH ERROR [Rank 4745] [job id 4844140.0] [Sun Nov 12 00:29:04 2023] [nid005271] - Abort(1) (rank 4745 in comm 0): application called MPI_Abort(MPI_COMM_WORLD, 1) - process 4745

aborting job:
application called MPI_Abort(MPI_COMM_WORLD, 1) - process 4745
MPICH ERROR [Rank 2447] [job id 4844140.0] [Sun Nov 12 00:29:04 2023] [nid003479] - Abort(1) (rank 2447 in comm 0): application called MPI_Abort(MPI_COMM_WORLD, 1) - process 2447

aborting job:
application called MPI_Abort(MPI_COMM_WORLD, 1) - process 2447
MPICH ERROR [Rank 4815] [job id 4844140.0] [Sun Nov 12 00:29:04 2023] [nid005271] - Abort(1) (rank 4815 in comm 0): application called MPI_Abort(MPI_COMM_WORLD, 1) - process 4815

aborting job:
application called MPI_Abort(MPI_COMM_WORLD, 1) - process 4815
MPICH ERROR [Rank 2455] [job id 4844140.0] [Sun Nov 12 00:29:04 2023] [nid003479] - Abort(1) (rank 2455 in comm 0): application called MPI_Abort(MPI_COMM_WORLD, 1) - process 2455

aborting job:
application called MPI_Abort(MPI_COMM_WORLD, 1) - process 2455
MPICH ERROR [Rank 4786] [job id 4844140.0] [Sun Nov 12 00:29:04 2023] [nid005271] - Abort(1) (rank 4786 in comm 0): application called MPI_Abort(MPI_COMM_WORLD, 1) - process 4786

aborting job:
application called MPI_Abort(MPI_COMM_WORLD, 1) - process 4786
MPICH ERROR [Rank 2486] [job id 4844140.0] [Sun Nov 12 00:29:04 2023] [nid003479] - Abort(1) (rank 2486 in comm 0): application called MPI_Abort(MPI_COMM_WORLD, 1) - process 2486

aborting job:
application called MPI_Abort(MPI_COMM_WORLD, 1) - process 2486
MPICH ERROR [Rank 7331] [job id 4844140.0] [Sun Nov 12 00:29:04 2023] [nid006395] - Abort(1) (rank 7331 in comm 0): application called MPI_Abort(MPI_COMM_WORLD, 1) - process 7331

aborting job:
application called MPI_Abort(MPI_COMM_WORLD, 1) - process 7331
MPICH ERROR [Rank 4783] [job id 4844140.0] [Sun Nov 12 00:29:04 2023] [nid005271] - Abort(1) (rank 4783 in comm 0): application called MPI_Abort(MPI_COMM_WORLD, 1) - process 4783

aborting job:
application called MPI_Abort(MPI_COMM_WORLD, 1) - process 4783
MPICH ERROR [Rank 2487] [job id 4844140.0] [Sun Nov 12 00:29:04 2023] [nid003479] - Abort(1) (rank 2487 in comm 0): application called MPI_Abort(MPI_COMM_WORLD, 1) - process 2487

aborting job:
application called MPI_Abort(MPI_COMM_WORLD, 1) - process 2487
MPICH ERROR [Rank 7375] [job id 4844140.0] [Sun Nov 12 00:29:04 2023] [nid006395] - Abort(1) (rank 7375 in comm 0): application called MPI_Abort(MPI_COMM_WORLD, 1) - process 7375

aborting job:
application called MPI_Abort(MPI_COMM_WORLD, 1) - process 7375
MPICH ERROR [Rank 2495] [job id 4844140.0] [Sun Nov 12 00:29:04 2023] [nid003479] - Abort(1) (rank 2495 in comm 0): application called MPI_Abort(MPI_COMM_WORLD, 1) - process 2495

aborting job:
application called MPI_Abort(MPI_COMM_WORLD, 1) - process 2495
MPICH ERROR [Rank 7407] [job id 4844140.0] [Sun Nov 12 00:29:04 2023] [nid006395] - Abort(1) (rank 7407 in comm 0): application called MPI_Abort(MPI_COMM_WORLD, 1) - process 7407

aborting job:
application called MPI_Abort(MPI_COMM_WORLD, 1) - process 7407
MPICH ERROR [Rank 2511] [job id 4844140.0] [Sun Nov 12 00:29:04 2023] [nid003479] - Abort(1) (rank 2511 in comm 0): application called MPI_Abort(MPI_COMM_WORLD, 1) - process 2511

aborting job:
application called MPI_Abort(MPI_COMM_WORLD, 1) - process 2511
MPICH ERROR [Rank 7410] [job id 4844140.0] [Sun Nov 12 00:29:04 2023] [nid006395] - Abort(1) (rank 7410 in comm 0): application called MPI_Abort(MPI_COMM_WORLD, 1) - process 7410

aborting job:
application called MPI_Abort(MPI_COMM_WORLD, 1) - process 7410
MPICH ERROR [Rank 2514] [job id 4844140.0] [Sun Nov 12 00:29:04 2023] [nid003479] - Abort(1) (rank 2514 in comm 0): application called MPI_Abort(MPI_COMM_WORLD, 1) - process 2514

aborting job:
application called MPI_Abort(MPI_COMM_WORLD, 1) - process 2514
MPICH ERROR [Rank 2543] [job id 4844140.0] [Sun Nov 12 00:29:04 2023] [nid003479] - Abort(1) (rank 2543 in comm 0): application called MPI_Abort(MPI_COMM_WORLD, 1) - process 2543

aborting job:
application called MPI_Abort(MPI_COMM_WORLD, 1) - process 2543
MPICH ERROR [Rank 7305] [job id 4844140.0] [Sun Nov 12 00:29:05 2023] [nid006395] - Abort(1) (rank 7305 in comm 0): application called MPI_Abort(MPI_COMM_WORLD, 1) - process 7305

aborting job:
application called MPI_Abort(MPI_COMM_WORLD, 1) - process 7305
MPICH ERROR [Rank 2559] [job id 4844140.0] [Sun Nov 12 00:29:04 2023] [nid003479] - Abort(1) (rank 2559 in comm 0): application called MPI_Abort(MPI_COMM_WORLD, 1) - process 2559

aborting job:
application called MPI_Abort(MPI_COMM_WORLD, 1) - process 2559
MPICH ERROR [Rank 7372] [job id 4844140.0] [Sun Nov 12 00:29:05 2023] [nid006395] - Abort(1) (rank 7372 in comm 0): application called MPI_Abort(MPI_COMM_WORLD, 1) - process 7372

aborting job:
application called MPI_Abort(MPI_COMM_WORLD, 1) - process 7372
MPICH ERROR [Rank 2437] [job id 4844140.0] [Sun Nov 12 00:29:04 2023] [nid003479] - Abort(1) (rank 2437 in comm 0): application called MPI_Abort(MPI_COMM_WORLD, 1) - process 2437

aborting job:
application called MPI_Abort(MPI_COMM_WORLD, 1) - process 2437
MPICH ERROR [Rank 7319] [job id 4844140.0] [Sun Nov 12 00:29:05 2023] [nid006395] - Abort(1) (rank 7319 in comm 0): application called MPI_Abort(MPI_COMM_WORLD, 1) - process 7319

aborting job:
application called MPI_Abort(MPI_COMM_WORLD, 1) - process 7319
MPICH ERROR [Rank 2494] [job id 4844140.0] [Sun Nov 12 00:29:04 2023] [nid003479] - Abort(1) (rank 2494 in comm 0): application called MPI_Abort(MPI_COMM_WORLD, 1) - process 2494

aborting job:
application called MPI_Abort(MPI_COMM_WORLD, 1) - process 2494
MPICH ERROR [Rank 7299] [job id 4844140.0] [Sun Nov 12 00:29:05 2023] [nid006395] - Abort(1) (rank 7299 in comm 0): application called MPI_Abort(MPI_COMM_WORLD, 1) - process 7299

aborting job:
application called MPI_Abort(MPI_COMM_WORLD, 1) - process 7299
MPICH ERROR [Rank 2508] [job id 4844140.0] [Sun Nov 12 00:29:04 2023] [nid003479] - Abort(1) (rank 2508 in comm 0): application called MPI_Abort(MPI_COMM_WORLD, 1) - process 2508

aborting job:
application called MPI_Abort(MPI_COMM_WORLD, 1) - process 2508
MPICH ERROR [Rank 2519] [job id 4844140.0] [Sun Nov 12 00:29:04 2023] [nid003479] - Abort(1) (rank 2519 in comm 0): application called MPI_Abort(MPI_COMM_WORLD, 1) - process 2519

aborting job:
application called MPI_Abort(MPI_COMM_WORLD, 1) - process 2519
MPICH ERROR [Rank 7311] [job id 4844140.0] [Sun Nov 12 00:29:05 2023] [nid006395] - Abort(1) (rank 7311 in comm 0): application called MPI_Abort(MPI_COMM_WORLD, 1) - process 7311

aborting job:
application called MPI_Abort(MPI_COMM_WORLD, 1) - process 7311
MPICH ERROR [Rank 2556] [job id 4844140.0] [Sun Nov 12 00:29:04 2023] [nid003479] - Abort(1) (rank 2556 in comm 0): application called MPI_Abort(MPI_COMM_WORLD, 1) - process 2556

aborting job:
application called MPI_Abort(MPI_COMM_WORLD, 1) - process 2556
MPICH ERROR [Rank 7397] [job id 4844140.0] [Sun Nov 12 00:29:05 2023] [nid006395] - Abort(1) (rank 7397 in comm 0): application called MPI_Abort(MPI_COMM_WORLD, 1) - process 7397

aborting job:
application called MPI_Abort(MPI_COMM_WORLD, 1) - process 7397
MPICH ERROR [Rank 2503] [job id 4844140.0] [Sun Nov 12 00:29:04 2023] [nid003479] - Abort(1) (rank 2503 in comm 0): application called MPI_Abort(MPI_COMM_WORLD, 1) - process 2503

aborting job:
application called MPI_Abort(MPI_COMM_WORLD, 1) - process 2503
MPICH ERROR [Rank 7308] [job id 4844140.0] [Sun Nov 12 00:29:05 2023] [nid006395] - Abort(1) (rank 7308 in comm 0): application called MPI_Abort(MPI_COMM_WORLD, 1) - process 7308

aborting job:
application called MPI_Abort(MPI_COMM_WORLD, 1) - process 7308
MPICH ERROR [Rank 7335] [job id 4844140.0] [Sun Nov 12 00:29:05 2023] [nid006395] - Abort(1) (rank 7335 in comm 0): application called MPI_Abort(MPI_COMM_WORLD, 1) - process 7335

aborting job:
application called MPI_Abort(MPI_COMM_WORLD, 1) - process 7335
MPICH ERROR [Rank 5889] [job id 4844140.0] [Sun Nov 12 00:29:04 2023] [nid005798] - Abort(1) (rank 5889 in comm 0): application called MPI_Abort(MPI_COMM_WORLD, 1) - process 5889

aborting job:
application called MPI_Abort(MPI_COMM_WORLD, 1) - process 5889
MPICH ERROR [Rank 2524] [job id 4844140.0] [Sun Nov 12 00:29:04 2023] [nid003479] - Abort(1) (rank 2524 in comm 0): application called MPI_Abort(MPI_COMM_WORLD, 1) - process 2524

aborting job:
application called MPI_Abort(MPI_COMM_WORLD, 1) - process 2524
MPICH ERROR [Rank 7302] [job id 4844140.0] [Sun Nov 12 00:29:05 2023] [nid006395] - Abort(1) (rank 7302 in comm 0): application called MPI_Abort(MPI_COMM_WORLD, 1) - process 7302

aborting job:
application called MPI_Abort(MPI_COMM_WORLD, 1) - process 7302
MPICH ERROR [Rank 6263] [job id 4844140.0] [Sun Nov 12 00:29:05 2023] [nid005853] - Abort(1) (rank 6263 in comm 0): application called MPI_Abort(MPI_COMM_WORLD, 1) - process 6263

aborting job:
application called MPI_Abort(MPI_COMM_WORLD, 1) - process 6263
MPICH ERROR [Rank 3073] [job id 4844140.0] [Sun Nov 12 00:29:04 2023] [nid003829] - Abort(1) (rank 3073 in comm 0): application called MPI_Abort(MPI_COMM_WORLD, 1) - process 3073

aborting job:
application called MPI_Abort(MPI_COMM_WORLD, 1) - process 3073
MPICH ERROR [Rank 3841] [job id 4844140.0] [Sun Nov 12 00:29:04 2023] [nid004290] - Abort(1) (rank 3841 in comm 0): application called MPI_Abort(MPI_COMM_WORLD, 1) - process 3841

aborting job:
application called MPI_Abort(MPI_COMM_WORLD, 1) - process 3841
MPICH ERROR [Rank 7205] [job id 4844140.0] [Sun Nov 12 00:29:04 2023] [nid006388] - Abort(1) (rank 7205 in comm 0): application called MPI_Abort(MPI_COMM_WORLD, 1) - process 7205

aborting job:
application called MPI_Abort(MPI_COMM_WORLD, 1) - process 7205
MPICH ERROR [Rank 4873] [job id 4844140.0] [Sun Nov 12 00:29:05 2023] [nid005273] - Abort(1) (rank 4873 in comm 0): application called MPI_Abort(MPI_COMM_WORLD, 1) - process 4873

aborting job:
application called MPI_Abort(MPI_COMM_WORLD, 1) - process 4873
MPICH ERROR [Rank 5938] [job id 4844140.0] [Sun Nov 12 00:29:04 2023] [nid005798] - Abort(1) (rank 5938 in comm 0): application called MPI_Abort(MPI_COMM_WORLD, 1) - process 5938

aborting job:
application called MPI_Abort(MPI_COMM_WORLD, 1) - process 5938
MPICH ERROR [Rank 2439] [job id 4844140.0] [Sun Nov 12 00:29:04 2023] [nid003479] - Abort(1) (rank 2439 in comm 0): application called MPI_Abort(MPI_COMM_WORLD, 1) - process 2439

aborting job:
application called MPI_Abort(MPI_COMM_WORLD, 1) - process 2439
MPICH ERROR [Rank 7383] [job id 4844140.0] [Sun Nov 12 00:29:05 2023] [nid006395] - Abort(1) (rank 7383 in comm 0): application called MPI_Abort(MPI_COMM_WORLD, 1) - process 7383

aborting job:
application called MPI_Abort(MPI_COMM_WORLD, 1) - process 7383
MPICH ERROR [Rank 6223] [job id 4844140.0] [Sun Nov 12 00:29:05 2023] [nid005853] - Abort(1) (rank 6223 in comm 0): application called MPI_Abort(MPI_COMM_WORLD, 1) - process 6223

MPICH ERROR [Rank 6999] [job id 4844140.0] [Sun Nov 12 00:29:04 2023] [nid006240] - Abort(1) (rank 6999 in comm 0): application called MPI_Abort(MPI_COMM_WORLD, 1) - process 6999

aborting job:
application called MPI_Abort(MPI_COMM_WORLD, 1) - process 6999
MPICH ERROR [Rank 3077] [job id 4844140.0] [Sun Nov 12 00:29:04 2023] [nid003829] - Abort(1) (rank 3077 in comm 0): application called MPI_Abort(MPI_COMM_WORLD, 1) - process 3077

aborting job:
application called MPI_Abort(MPI_COMM_WORLD, 1) - process 3077
MPICH ERROR [Rank 3884] [job id 4844140.0] [Sun Nov 12 00:29:04 2023] [nid004290] - Abort(1) (rank 3884 in comm 0): application called MPI_Abort(MPI_COMM_WORLD, 1) - process 3884

aborting job:
application called MPI_Abort(MPI_COMM_WORLD, 1) - process 3884
MPICH ERROR [Rank 7215] [job id 4844140.0] [Sun Nov 12 00:29:04 2023] [nid006388] - Abort(1) (rank 7215 in comm 0): application called MPI_Abort(MPI_COMM_WORLD, 1) - process 7215

aborting job:
application called MPI_Abort(MPI_COMM_WORLD, 1) - process 7215
MPICH ERROR [Rank 4911] [job id 4844140.0] [Sun Nov 12 00:29:05 2023] [nid005273] - Abort(1) (rank 4911 in comm 0): application called MPI_Abort(MPI_COMM_WORLD, 1) - process 4911

aborting job:
application called MPI_Abort(MPI_COMM_WORLD, 1) - process 4911
MPICH ERROR [Rank 2527] [job id 4844140.0] [Sun Nov 12 00:29:04 2023] [nid003479] - Abort(1) (rank 2527 in comm 0): application called MPI_Abort(MPI_COMM_WORLD, 1) - process 2527

aborting job:
application called MPI_Abort(MPI_COMM_WORLD, 1) - process 2527
MPICH ERROR [Rank 7388] [job id 4844140.0] [Sun Nov 12 00:29:05 2023] [nid006395] - Abort(1) (rank 7388 in comm 0): application called MPI_Abort(MPI_COMM_WORLD, 1) - process 7388

aborting job:
application called MPI_Abort(MPI_COMM_WORLD, 1) - process 7388
MPICH ERROR [Rank 1924] [job id 4844140.0] [Sun Nov 12 00:29:04 2023] [nid003215] - Abort(1) (rank 1924 in comm 0): application called MPI_Abort(MPI_COMM_WORLD, 1) - process 1924

aborting job:
application called MPI_Abort(MPI_COMM_WORLD, 1) - process 1924
aborting job:
application called MPI_Abort(MPI_COMM_WORLD, 1) - process 6223
MPICH ERROR [Rank 7036] [job id 4844140.0] [Sun Nov 12 00:29:04 2023] [nid006240] - Abort(1) (rank 7036 in comm 0): application called MPI_Abort(MPI_COMM_WORLD, 1) - process 7036

aborting job:
application called MPI_Abort(MPI_COMM_WORLD, 1) - process 7036
MPICH ERROR [Rank 3084] [job id 4844140.0] [Sun Nov 12 00:29:04 2023] [nid003829] - Abort(1) (rank 3084 in comm 0): application called MPI_Abort(MPI_COMM_WORLD, 1) - process 3084

aborting job:
application called MPI_Abort(MPI_COMM_WORLD, 1) - process 3084
MPICH ERROR [Rank 3894] [job id 4844140.0] [Sun Nov 12 00:29:04 2023] [nid004290] - Abort(1) (rank 3894 in comm 0): application called MPI_Abort(MPI_COMM_WORLD, 1) - process 3894

aborting job:
application called MPI_Abort(MPI_COMM_WORLD, 1) - process 3894
MPICH ERROR [Rank 7239] [job id 4844140.0] [Sun Nov 12 00:29:04 2023] [nid006388] - Abort(1) (rank 7239 in comm 0): application called MPI_Abort(MPI_COMM_WORLD, 1) - process 7239

aborting job:
application called MPI_Abort(MPI_COMM_WORLD, 1) - process 7239
MPICH ERROR [Rank 5950] [job id 4844140.0] [Sun Nov 12 00:29:04 2023] [nid005798] - Abort(1) (rank 5950 in comm 0): application called MPI_Abort(MPI_COMM_WORLD, 1) - process 5950

aborting job:
application called MPI_Abort(MPI_COMM_WORLD, 1) - process 5950
MPICH ERROR [Rank 2535] [job id 4844140.0] [Sun Nov 12 00:29:04 2023] [nid003479] - Abort(1) (rank 2535 in comm 0): application called MPI_Abort(MPI_COMM_WORLD, 1) - process 2535

aborting job:
application called MPI_Abort(MPI_COMM_WORLD, 1) - process 2535
MPICH ERROR [Rank 780] [job id 4844140.0] [Sun Nov 12 00:29:04 2023] [nid001933] - Abort(1) (rank 780 in comm 0): application called MPI_Abort(MPI_COMM_WORLD, 1) - process 780

aborting job:
application called MPI_Abort(MPI_COMM_WORLD, 1) - process 780
MPICH ERROR [Rank 7399] [job id 4844140.0] [Sun Nov 12 00:29:05 2023] [nid006395] - Abort(1) (rank 7399 in comm 0): application called MPI_Abort(MPI_COMM_WORLD, 1) - process 7399

aborting job:
application called MPI_Abort(MPI_COMM_WORLD, 1) - process 7399
MPICH ERROR [Rank 1925] [job id 4844140.0] [Sun Nov 12 00:29:04 2023] [nid003215] - Abort(1) (rank 1925 in comm 0): application called MPI_Abort(MPI_COMM_WORLD, 1) - process 1925

aborting job:
application called MPI_Abort(MPI_COMM_WORLD, 1) - process 1925
MPICH ERROR [Rank 3111] [job id 4844140.0] [Sun Nov 12 00:29:04 2023] [nid003829] - Abort(1) (rank 3111 in comm 0): application called MPI_Abort(MPI_COMM_WORLD, 1) - process 3111

aborting job:
application called MPI_Abort(MPI_COMM_WORLD, 1) - process 3111
MPICH ERROR [Rank 3956] [job id 4844140.0] [Sun Nov 12 00:29:04 2023] [nid004290] - Abort(1) (rank 3956 in comm 0): application called MPI_Abort(MPI_COMM_WORLD, 1) - process 3956

aborting job:
application called MPI_Abort(MPI_COMM_WORLD, 1) - process 3956
MPICH ERROR [Rank 7255] [job id 4844140.0] [Sun Nov 12 00:29:04 2023] [nid006388] - Abort(1) (rank 7255 in comm 0): application called MPI_Abort(MPI_COMM_WORLD, 1) - process 7255

aborting job:
application called MPI_Abort(MPI_COMM_WORLD, 1) - process 7255
MPICH ERROR [Rank 4951] [job id 4844140.0] [Sun Nov 12 00:29:05 2023] [nid005273] - Abort(1) (rank 4951 in comm 0): application called MPI_Abort(MPI_COMM_WORLD, 1) - process 4951

aborting job:
application called MPI_Abort(MPI_COMM_WORLD, 1) - process 4951
MPICH ERROR [Rank 5951] [job id 4844140.0] [Sun Nov 12 00:29:04 2023] [nid005798] - Abort(1) (rank 5951 in comm 0): application called MPI_Abort(MPI_COMM_WORLD, 1) - process 5951

aborting job:
application called MPI_Abort(MPI_COMM_WORLD, 1) - process 5951
[...]
srun: error: nid006440: task 7906: Terminated
srun: error: nid002041: tasks 896-898,900,902-910,912-918,920-923,925-926,928-932,934,936-939,941-942,944-947,949,952-954,957,960-966,968-974,976-982,984-987,989-990,992-998,1000-1003,1005-1006,1008,1010-1014,1016-1019,1021-1023: Terminated
srun: error: nid005797: tasks 5760-5762,5766,5768,5771-5774,5776-5782,5784-5787,5789-5790,5792-5794,5796,5798,5800-5803,5805-5806,5808-5809,5811,5813-5814,5816-5818,5821-5822,5824-5830,5832-5838,5840-5846,5848-5851,5853-5854,5856-5862,5864-5867,5869-5870,5872-5878,5880-5883,5885,5887: Terminated
srun: error: nid006388: tasks 7168,7170,7172,7174-7176,7178-7182,7184-7190,7192-7195,7197-7198,7200-7202,7204,7206,7208-7211,7213-7214,7216,7219,7221-7222,7224-7226,7229,7232-7238,7240-7246,7248-7254,7256-7259,7261-7262,7264-7270,7272-7274,7277-7278,7280-7283,7285-7286,7288-7291,7293-7295: Terminated
srun: error: nid002041: tasks 899,901,911,919,924,927,933,935,940,943,948,950-951,955-956,959,967,975,983,988,991,999,1004,1007,1015,1020: Exited with exit code 255
srun: error: nid006388: tasks 7171,7173,7177,7183,7191,7196,7199,7203,7205,7207,7212,7215,7217-7218,7220,7223,7227-7228,7230-7231,7239,7247,7255,7260,7263,7271,7276,7279,7284,7287,7292: Exited with exit code 255
srun: error: nid005797: tasks 5763-5765,5767,5769,5775,5783,5788,5791,5795,5797,5799,5804,5807,5810,5812,5815,5819-5820,5823,5831,5839,5847,5852,5855,5863,5868,5871,5879,5884: Exited with exit code 255
srun: error: nid005753: tasks 5377-5380,5382-5398,5400-5403,5405-5414,5416-5419,5421-5422,5424-5427,5429-5430,5432-5434,5437-5438,5440,5442-5454,5456-5467,5469-5470,5472-5483,5485-5486,5488-5491,5493-5494,5496-5499,5501-5502: Terminated
srun: error: nid002785: tasks 1664-1666,1668,1670-1672,1674-1675,1677-1678,1680,1682-1686,1688-1691,1693-1694,1696-1700,1702,1704-1707,1709-1710,1712-1713,1715,1717-1718,1720-1721,1725-1726,1728-1734,1736-1742,1744-1750,1752,1754-1755,1757-1758,1760-1766,1768-1771,1773-1774,1776-1782,1784-1787,1789-1791: Terminated
srun: error: nid005753: tasks 5381,5399,5404,5415,5423,5428,5431,5435-5436,5439,5455,5468,5471,5484,5487,5492,5495,5500,5503: Exited with exit code 255
srun: error: nid003910: tasks 3200-3202,3204,3206-3208,3210-3211,3213-3214,3216-3222,3224-3227,3229-3230,3232-3236,3238,3240-3243,3245-3246,3248-3251,3253-3254,3256-3258,3261-3262,3264-3270,3272-3275,3277-3278,3280-3286,3288-3291,3293-3294,3296-3299,3301-3302,3304-3307,3309-3310,3312-3315,3317-3318,3320-3323,3325-3326: Terminated
srun: error: nid006230: task 6606: Terminated
srun: error: nid002785: tasks 1667,1669,1673,1676,1679,1687,1692,1695,1701,1703,1708,1711,1714,1716,1719,1722-1724,1727,1735,1743,1751,1756,1759,1767,1772,1775,1783,1788: Exited with exit code 255
srun: error: nid001573: tasks 385-386,388,390-395,397-398,400,402-406,408-411,413-414,416-420,422-427,429-430,432-435,437,440-442,445-446,448-454,456-462,464-470,472-475,477-478,481-486,488-491,493-494,496-502,504-507,509-511: Terminated
srun: error: nid005796: tasks 5633-5634,5636-5640,5642-5659,5661-5675,5677-5678,5680,5683,5685-5686,5688-5690,5693-5694,5696,5698-5710,5712-5718,5720-5723,5725-5726,5728-5734,5736-5739,5741-5742,5744-5750,5752-5755,5757-5759: Terminated
srun: error: nid005293: tasks 5249-5250,5252-5256,5258-5262,5264-5270,5272-5275,5277-5284,5286-5291,5294,5296-5297,5299,5301-5302,5304-5307,5309-5310,5312-5326,5328-5332,5334,5336-5339,5341-5342,5344-5350,5352-5355,5357-5358,5360,5362-5366,5368-5371,5373-5375: Terminated
srun: error: nid006433: tasks 7680-7682,7686-7688,7690-7702,7704-7707,7710,7712-7714,7716,7718,7720-7723,7725-7726,7728,7731,7733-7734,7736-7738,7741-7742,7744-7750,7752-7755,7757-7758,7760-7761,7763-7766,7768-7771,7773-7774,7776-7782,7784-7787,7789-7790,7792-7793,7795-7798,7800-7803,7805-7806: Terminated
srun: error: nid003910: tasks 3203,3205,3209,3212,3215,3223,3228,3231,3237,3239,3244,3247,3252,3255,3259-3260,3263,3271,3276,3279,3287,3292,3295,3303,3308,3311,3316,3319,3324,3327: Exited with exit code 255
srun: error: nid006229: tasks 6400-6401,6403-6404,6406-6414,6416-6422,6424-6427,6429-6430,6432-6436,6438,6440-6444,6446,6448-6451,6453-6454,6456-6458,6461-6462,6464-6470,6472-6476,6478,6480-6486,6488-6491,6493-6494,6496-6502,6504-6507,6509-6510,6512-6518,6520-6523,6525-6527: Terminated
srun: error: nid003913: tasks 3456-3458,3460,3462-3464,3466-3467,3469-3470,3472,3474-3478,3480-3483,3485-3486,3488-3492,3494-3499,3501-3502,3504-3507,3509,3512-3514,3517,3520-3526,3528-3531,3533-3534,3536-3537,3539-3542,3544-3547,3549-3550,3552-3558,3560-3563,3565-3566,3568-3574,3576-3579,3581-3583: Terminated
srun: error: nid005796: tasks 5635,5641,5660,5679,5681-5682,5684,5687,5691-5692,5695,5711,5719,5724,5727,5735,5740,5743,5751,5756: Exited with exit code 255
srun: error: nid001573: tasks 387,389,396,399,407,412,415,421,428,431,436,438-439,443-444,447,455,463,471,476,479,487,492,495,503,508: Exited with exit code 255
srun: error: nid006433: tasks 7683-7685,7689,7703,7708,7711,7715,7717,7719,7724,7727,7729-7730,7732,7735,7739-7740,7743,7751,7756,7759,7762,7767,7772,7775,7783,7788,7791,7799,7804,7807: Exited with exit code 255
srun: error: nid006420: task 7640: Terminated
srun: error: nid006229: tasks 6405,6415,6423,6428,6431,6437,6439,6447,6452,6455,6459-6460,6463,6471,6479,6487,6492,6495,6503,6508,6511,6519,6524: Exited with exit code 255
srun: error: nid005293: tasks 5251,5257,5263,5271,5276,5285,5292,5295,5298,5300,5303,5308,5311,5327,5335,5340,5343,5351,5356,5359,5367,5372: Exited with exit code 255
srun: error: nid005273: tasks 4864-4868,4870-4872,4874-4878,4880-4886,4888-4891,4893-4894,4896-4902,4904-4907,4909-4910,4912-4915,4917-4918,4920-4922,4926,4928-4942,4944-4950,4952-4953,4955,4957-4958,4960-4966,4968-4971,4973-4974,4976-4979,4981-4982,4984-4987,4989-4990: Terminated
srun: error: nid003752: task 3029: Terminated
srun: error: nid003913: tasks 3459,3461,3465,3468,3471,3479,3484,3487,3493,3500,3503,3508,3510-3511,3515-3516,3518-3519,3527,3532,3535,3543,3548,3551,3559,3564,3567,3575,3580: Exited with exit code 255
srun: error: nid005273: tasks 4869,4873,4879,4887,4892,4895,4903,4908,4911,4916,4919,4923-4924,4927,4943,4951,4956,4959,4967,4972,4975,4980,4983,4988,4991: Exited with exit code 255
srun: error: nid003912: tasks 3328-3330,3332,3334,3336,3338-3339,3341-3342,3344-3350,3352-3355,3357-3358,3360-3364,3366,3368-3371,3374,3376-3379,3381,3384-3386,3389,3392-3396,3398,3400-3403,3405-3406,3408-3409,3411-3414,3416-3419,3421-3422,3424-3426,3428-3430,3432-3435,3437-3438,3440-3443,3445-3446,3448-3451,3453-3454: Terminated
srun: error: nid003912: tasks 3331,3333,3335,3337,3340,3343,3351,3356,3359,3365,3367,3372,3375,3380,3382-3383,3387-3388,3390-3391,3397,3399,3404,3407,3410,3415,3420,3423,3431,3436,3439,3444,3447,3452,3455: Exited with exit code 255
srun: error: nid001837: tasks 641-642,644,646-654,656-662,664-667,669-670,672-678,680-683,686,688-691,693-694,696-698,701-702,704-710,712-713,715-718,720-726,728-731,733-734,736-742,744-747,749-750,752-758,760-763,765-767: Terminated
srun: error: nid001837: tasks 643,645,655,663,668,671,679,684,687,692,695,699-700,703,711,719,727,732,735,743,748,751,759,764: Exited with exit code 255
srun: error: nid003197: task 1857: Terminated
srun: error: nid003451: task 2349: Terminated
srun: error: nid003571: tasks 2560-2582,2584-2587,2589-2604,2606,2608-2609,2611,2613-2614,2616-2619,2621-2622,2624-2638,2640-2646,2648-2651,2653-2654,2656-2662,2664-2667,2669-2670,2672,2674-2678,2680-2683,2685-2687: Terminated
srun: error: nid006233: tasks 6785-6786,6788,6790-6792,6794-6798,6800-6806,6808-6811,6813-6814,6816-6820,6822,6824-6827,6829-6830,6832-6833,6835,6837-6838,6840-6842,6845-6846,6848-6854,6856-6862,6864-6870,6872,6874-6875,6877-6878,6880-6886,6888-6891,6893-6894,6896-6902,6904-6907,6909-6911: Terminated
srun: error: nid003571: tasks 2583,2588,2607,2610,2612,2615,2620,2623,2639,2647,2652,2655,2663,2668,2671,2679,2684: Exited with exit code 255
srun: error: nid004289: tasks 3712-3714,3716,3718-3720,3722-3723,3725-3726,3728,3730-3734,3736-3739,3741-3742,3744-3748,3750,3752-3755,3758,3760,3763,3765-3766,3768-3769,3773,3776-3782,3784-3790,3792-3798,3800-3803,3805,3808-3814,3816-3819,3821-3822,3824,3826-3830,3832-3835,3837-3838: Terminated
srun: error: nid005853: tasks 6144-6152,6154-6171,6173-6187,6189-6190,6192-6195,6197-6198,6200-6203,6205-6206,6208-6222,6224-6230,6232-6235,6237-6238,6240-6246,6248-6251,6253-6254,6256-6262,6264-6267,6269,6271: Terminated
srun: error: nid006233: tasks 6787,6789,6793,6799,6807,6812,6815,6821,6823,6828,6831,6834,6836,6839,6843-6844,6847,6855,6863,6871,6876,6879,6887,6892,6895,6903,6908: Exited with exit code 255
srun: error: nid005853: tasks 6153,6172,6191,6196,6199,6204,6207,6223,6231,6236,6239,6247,6252,6255,6263,6268: Exited with exit code 255
srun: error: nid004289: tasks 3715,3717,3721,3724,3727,3735,3740,3743,3749,3751,3756,3759,3761-3762,3764,3767,3770-3772,3774-3775,3783,3791,3799,3804,3806-3807,3815,3820,3823,3831,3836,3839: Exited with exit code 255
srun: error: nid006232: tasks 6656,6658,6661-6664,6666-6678,6680-6683,6685-6697,6699-6702,6704-6705,6707,6709-6710,6712-6715,6717-6718,6720-6734,6736-6742,6744-6747,6749-6750,6752-6758,6760-6763,6765-6766,6768,6770-6774,6776-6779,6781-6783: Terminated
srun: error: nid006232: tasks 6659-6660,6665,6679,6684,6703,6706,6708,6711,6716,6719,6735,6743,6748,6751,6759,6764,6767,6775,6780: Exited with exit code 255
srun: error: nid005283: tasks 4992-4994,4998-5000,5002-5006,5008-5014,5016-5019,5021-5022,5024-5028,5030,5032-5035,5037,5040-5041,5043,5045,5048-5050,5053,5056-5062,5064-5070,5072-5078,5080-5082,5085-5086,5088-5094,5096-5099,5101-5102,5104-5110,5112-5115,5117-5119: Terminated
srun: error: nid005283: tasks 4995-4997,5001,5007,5015,5020,5023,5029,5031,5036,5039,5042,5044,5046-5047,5051-5052,5055,5063,5071,5079,5084,5087,5095,5100,5103,5111,5116: Exited with exit code 255
srun: error: nid005271: tasks 4737-4738,4740,4742-4744,4746-4750,4752-4758,4760-4763,4765-4766,4768-4772,4774,4776-4779,4781-4782,4784-4785,4787,4789-4790,4792-4794,4797-4798,4800-4806,4808-4814,4816-4822,4824-4827,4829-4830,4832-4838,4840-4843,4845-4846,4849-4854,4856-4859,4861-4863: Terminated
srun: error: nid004967: tasks 4353-4379,4381-4396,4398,4400-4403,4405-4406,4408-4411,4416,4418-4443,4445-4460,4462,4464-4470,4472-4475,4477-4479: Terminated
srun: error: nid005271: tasks 4739,4741,4745,4751,4759,4764,4767,4773,4775,4780,4783,4786,4788,4791,4795-4796,4799,4807,4815,4823,4828,4831,4839,4844,4847,4855,4860: Exited with exit code 255
srun: error: nid003221: tasks 2049-2075,2077-2093,2096-2099,2101-2102,2104-2107,2109-2110,2112-2126,2128-2134,2137-2139,2141-2142,2144-2150,2152-2155,2157-2158,2160-2166,2168-2171,2173-2175: Terminated
srun: error: nid001933: tasks 768-772,774,776-779,781-782,784-790,792-795,797-798,800-804,806,808-811,813,816-819,821-822,824-826,829-830,832-846,848-854,856-859,861-862,864-870,872-875,877-878,880-881,883,885-886,888-891,893-894: Terminated
srun: error: nid001642: tasks 513-539,541-557,560-563,566,568-571,573-574,576-590,592-598,600-603,605-606,608-614,616-619,621-622,624-625,627-630,632-635,637-639: Terminated
srun: error: nid001933: tasks 773,775,780,783,791,796,799,805,807,812,815,820,823,827-828,831,847,855,860,863,871,876,879,884,887,892,895: Exited with exit code 255
srun: error: nid001573: task 384: Terminated
srun: error: nid005797: task 5770: Terminated
srun: error: nid005293: tasks 5248,5361: Terminated
srun: error: nid002042: tasks 1025-1028,1030-1038,1040-1046,1048-1051,1053-1054,1056-1067,1069-1070,1072-1075,1077-1078,1080-1081,1083,1085,1088-1102,1104-1115,1117-1118,1120-1134,1136-1142,1144-1147,1149,1151: Terminated
srun: error: nid004970: tasks 4480-4482,4484-4488,4490-4494,4496-4507,4509-4516,4518-4523,4526,4528-4531,4533,4536-4538,4541-4542,4544-4550,4552-4558,4560-4566,4568-4571,4573-4574,4576-4582,4584-4587,4589-4590,4592-4598,4600-4603,4605,4607: Terminated
srun: error: nid004970: tasks 4483,4489,4495,4508,4517,4524,4527,4532,4534-4535,4539-4540,4543,4551,4559,4567,4572,4575,4583,4588,4591,4599,4604: Exited with exit code 255
srun: error: nid001837: task 685: Terminated
srun: error: nid005288: tasks 5120-5122,5124-5128,5130-5147,5149-5150,5152-5156,5158-5166,5168-5169,5171,5173-5179,5181-5182,5184-5205,5207-5211,5213-5214,5216-5230,5232-5238,5240-5243,5245-5247: Terminated
srun: error: nid004290: task 3865: Terminated
srun: error: nid006020: tasks 6272-6274,6276-6280,6282-6286,6288-6299,6301-6308,6310-6318,6320-6321,6323,6325-6326,6328-6331,6333-6334,6336-6350,6352-6358,6360-6363,6365-6366,6368-6374,6376-6379,6381-6382,6384-6390,6392-6395,6397-6399: Terminated
srun: error: nid006229: tasks 6445,6477: Terminated
srun: error: nid005796: task 5632: Terminated
srun: error: nid006020: tasks 6275,6281,6287,6300,6309,6319,6322,6324,6327,6332,6335,6351,6359,6364,6367,6375,6380,6383,6391,6396: Exited with exit code 255
srun: error: nid004289: tasks 3729,3825: Terminated
srun: error: nid004288: task 3584: Terminated
srun: error: nid001348: tasks 128-142,144-150,152-155,157-171,173-174,176-179,181-182,184-186,189-190,192-198,200-206,208-214,216-219,221-222,224-230,232-235,237-238,241-246,248-251,253-255: Terminated
srun: error: nid006240: task 6922: Terminated
srun: error: nid001348: tasks 143,151,156,172,175,180,183,187-188,191,199,207,215,220,223,231,236,239,247,252: Exited with exit code 255
srun: error: nid006241: task 7118: Terminated
srun: error: nid003737: task 2929: Terminated
srun: error: nid003451: task 2417: Terminated
srun: error: nid002785: task 1753: Terminated
srun: error: nid006232: task 6769: Terminated
srun: error: nid004725: tasks 4224-4226,4228-4238,4240-4251,4253-4260,4262-4270,4272-4275,4277-4278,4280-4283,4286,4288-4302,4304-4305,4307-4310,4312-4315,4317-4318,4320-4326,4328-4331,4333-4334,4336-4342,4344-4347,4349-4351: Terminated
srun: error: nid006240: task 7022: Terminated
srun: error: nid002479: task 1280: Terminated
srun: error: nid002043: task 1198: Terminated
srun: error: nid005092: tasks 4608-4615,4617-4625,4627-4667,4669-4670,4673-4699,4701-4718,4720-4726,4728-4731,4733-4735: Terminated
srun: error: nid005797: task 5886: Terminated
srun: error: nid006233: tasks 6784,6873: Terminated
srun: error: nid004725: task 4306: Terminated
srun: error: nid003197: task 1837: Terminated
srun: error: nid001933: tasks 814,882: Terminated
srun: error: nid003712: tasks 2734,2753: Terminated
srun: error: nid003752: tasks 2961,3009: Terminated
srun: error: nid005283: tasks 5038,5083: Terminated
srun: error: nid006433: task 7794: Terminated
srun: error: nid002785: task 1681: Terminated
srun: error: nid003225: task 2274: Terminated
srun: error: nid004291: tasks 3968,3970,3974,3976,3978-3979,3981-3982,3984-3990,3992-3995,3997,4001-4002,4004,4006,4008-4011,4013-4014,4016,4019,4021,4024-4025,4029,4032-4059,4061-4095: Terminated
srun: error: nid006395: task 7360: Terminated
srun: error: nid003221: tasks 2048,2136: Terminated
srun: error: nid004291: tasks 3969,3971-3973,3975,3977,3980,3983,3991,3996,3999-4000,4003,4005,4007,4012,4015,4017-4018,4020,4022-4023,4026-4028,4030-4031: Exited with exit code 255
srun: error: nid005271: tasks 4736,4848: Terminated
srun: error: nid001387: tasks 257-283,285-302,304-307,309-310,312-315,317-318,320-347,349-366,368-374,376-378,381-383: Terminated
srun: error: nid006440: tasks 7809,7886: Terminated
srun: error: nid001348: task 240: Terminated
srun: error: nid003215: tasks 1936,2018: Terminated
srun: error: nid003912: task 3427: Terminated
srun: error: nid004290: task 3905: Terminated
srun: error: nid004970: task 4606: Terminated
srun: error: nid002516: task 1521: Terminated
srun: error: nid006466: tasks 8064,8066,8070,8072,8074-8075,8077-8078,8080-8086,8088-8091,8093-8094,8096-8098,8100,8102,8104-8107,8109-8110,8112,8115,8117,8120-8121,8125,8128-8155,8157-8191: Terminated
srun: error: nid006466: tasks 8065,8067-8069,8071,8073,8076,8079,8087,8092,8095,8099,8101,8103,8108,8111,8114,8116,8118-8119,8122-8124,8126-8127: Exited with exit code 255
srun: error: nid003479: tasks 2448,2509: Terminated
srun: error: nid002042: task 1150: Terminated
srun: error: nid005770: task 5578: Terminated
srun: error: nid006459: task 8057: Terminated
srun: error: nid006416: task 7489: Terminated
srun: error: nid005288: task 5206: Terminated
srun: error: nid003829: task 3163: Terminated
srun: error: nid001124: tasks 0-3,5-59,61-62,64-91,93-94,96-98,100-102,104-108,110,112-118,120-123,125-127: Terminated
srun: error: nid005798: tasks 5934,5953: Terminated
srun: error: nid002043: task 1258: Terminated
srun: error: nid003912: task 3373: Terminated
srun: error: nid005799: task 6129: Terminated
srun: error: nid005853: task 6270: Terminated
srun: error: nid004724: tasks 4096-4155,4157-4187,4189-4206,4208-4214,4216-4219,4221-4223: Terminated
srun: error: nid005273: task 4954: Terminated
srun: error: nid004289: task 3757: Terminated
srun: error: nid006388: task 7275: Terminated
srun: error: nid003197: task 1901: Terminated
srun: error: nid006229: task 6402: Terminated
srun: error: nid006230: tasks 6574,6626: Terminated
srun: error: nid001573: task 401: Terminated
srun: error: nid002666: task 1601: Terminated
srun: error: nid005753: task 5376: Terminated
srun: error: nid003913: tasks 3473,3538: Terminated
srun: error: nid003829: task 3117: Terminated
srun: error: nid002516: task 1453: Terminated
srun: error: nid004967: tasks 4352,4461: Terminated
srun: error: nid001642: task 558: Terminated
srun: error: nid005799: task 6032: Terminated
srun: error: nid006388: task 7169: Terminated
srun: error: nid002041: task 1009: Terminated
srun: error: nid003197: task 1809: Terminated
srun: error: nid006420: task 7617: Terminated
srun: error: nid005796: task 5697: Terminated
srun: error: nid002479: task 1346: Terminated
srun: error: nid006416: task 7441: Terminated
srun: error: nid001837: task 714: Terminated
srun: error: nid003571: task 2673: Terminated
srun: error: nid005283: task 5054: Terminated
srun: error: nid003910: task 3300: Terminated
srun: error: nid004288: task 3649: Terminated
srun: error: nid001387: task 379: Terminated
srun: error: nid004291: task 4060: Terminated
srun: error: nid006459: task 7978: Terminated
srun: error: nid001124: task 4: Terminated
srun: error: nid006433: task 7709: Terminated
srun: error: nid001642: task 626: Terminated
srun: error: nid005092: task 4626: Terminated
srun: error: nid005293: task 5293: Terminated
srun: error: nid006241: task 7056: Terminated
srun: error: nid001837: task 640: Terminated
srun: error: nid005753: task 5441: Terminated
srun: error: nid006232: task 6657: Terminated
srun: error: nid006466: task 8156: Terminated
srun: error: nid003737: task 2818: Terminated
srun: error: nid005770: task 5549: Terminated
srun: error: nid003225: task 2218: Terminated
srun: error: nid006420: task 7597: Terminated
srun: error: nid001573: task 480: Terminated
srun: error: nid004967: task 4397: Terminated
srun: error: nid005796: task 5676: Terminated
srun: error: nid005753: task 5420: Terminated
srun: error: nid003571: task 2605: Terminated
srun: error: nid002042: task 1024: Terminated
srun: error: nid005798: task 5905: Terminated
srun: error: nid001642: task 512: Terminated
srun: error: nid005092: task 4672: Terminated
srun: error: nid002666: task 1581: Terminated
srun: error: nid005293: task 5333: Terminated
srun: error: nid002041: task 958: Terminated
srun: error: nid006395: task 7312: Terminated
srun: error: nid005273: task 4925: Terminated
srun: error: nid004967: task 4417: Terminated
srun: error: nid001387: task 256: Terminated
srun: error: nid004970: task 4525: Terminated
srun: error: nid005853: task 6188: Terminated
srun: error: nid003221: task 2094: Terminated
srun: error: nid006232: task 6698: Terminated
srun: error: nid003451: task 2306: Terminated
srun: error: nid006466: task 8113: Terminated
srun: Force Terminated StepId=4844140.0
