 +-------------------------------------------------+
 |                                                 |
 |      CCC   AA    SSS  TTTTT  EEEEE  PPPP        |
 |     C     A  A  S       T    E      P   P       |
 |     C     AAAA   SS     T    EEE    PPPP        |
 |     C     A  A     S    T    E      P           |
 |      CCC  A  A  SSS     T    EEEEE  P           |
 |                                                 |
 +-------------------------------------------------+
 |                                                 |
 | Welcome to Academic Release CASTEP version 21.11|          
 | Ab Initio Total Energy Program                  |
 |                                                 |
 | Authors:                                        |
 | M. Segall, M. Probert, C. Pickard, P. Hasnip,   |
 | S. Clark, K. Refson, J. R. Yates, M. Payne      |
 |                                                 |
 | Contributors:                                   |
 | P. Lindan, P. Haynes, J. White, V. Milman,      |
 | N. Govind, M. Gibson, P. Tulip, V. Cocula,      |
 | B. Montanari, D. Quigley, M. Glover,            |
 | L. Bernasconi, A. Perlov, M. Plummer,           |
 | E. McNellis, J. Meyer, J. Gale, D. Jochym       |
 | J. Aarons, B. Walker, R. Gillen, D. Jones       |
 | T. Green, I. J. Bush, C. J. Armstrong,          |
 | E. J. Higgins, E. L. Brown, M. S. McFly,        |
 | J. Wilkins, B-C. Shih, P. J. P. Byrne,          |
 | R. J. Maurer, J. C. Womack, J. Dziedzic,        |
 | A. Bartok-Partay, L. LeBlanc                    |
 |                                                 |
 | Copyright (c) 2000 - 2021                       |
 |                                                 |
 |     Distributed under license from Cambridge    |
 |     Enterprise for academic use only.           |
 |                                                 |
 | Please cite                                     |
 |                                                 |
 |     "First principles methods using CASTEP"     |
 |                                                 |
 |         Zeitschrift fuer Kristallographie       |
 |           220(5-6) pp. 567-570 (2005)           |
 |                                                 |
 | S. J. Clark, M. D. Segall, C. J. Pickard,       |
 | P. J. Hasnip, M. J. Probert, K. Refson,         |
 | M. C. Payne                                     |
 |                                                 |
 |       in all publications arising from          |
 |              your use of CASTEP                 |
 |                                                 |
 +-------------------------------------------------+
 |                                                 |
 |              http://www.castep.org              |
 |                                                 |
 +-------------------------------------------------+



 Compiled for linux_x86_64_gfortran10-XT on Fri, 04 Mar 2022 09:14:27 +0000
 from code version 7d4405a8a+  HEAD  Sat Nov 27 13:38:33 2021 +0000
 Compiler: GNU Fortran 11.2.0; Optimisation: fast
 MATHLIBS: Intel MKL(2019.0.5) (LAPACK version 3.7.0)
 FFT Lib : mkl
 Fundamental constants values: CODATA 2014

 Run started: Fri, 04 Mar 2022 09:54:08 +0000

 Pseudo atomic calculation performed for O 2s2 2p4

 Converged in 13 iterations to a total energy of -430.9847 eV

 Pseudo atomic calculation performed for Al 3s2 3p1

 Converged in 14 iterations to a total energy of -53.3906 eV
 Calculation parallelised over 128 processes.
 Data is distributed by G-vector(64-way) and k-point(2-way)
 G-vector communication optimised for up to 2-way SMP.

 ************************************ Title ************************************
 3x3 sapphire surface benchmark (v1.1)

 ***************************** General Parameters ******************************
  
 output verbosity                               : normal  (1)
 write checkpoint data to                       : al3x3.check
 type of calculation                            : single point energy
 stress calculation                             : off
 density difference calculation                 : off
 electron localisation func (ELF) calculation   : off
 Hirshfeld analysis                             : off
 polarisation (Berry phase) analysis            : off
 molecular orbital projected DOS                : off
 deltaSCF calculation                           : off
 unlimited duration calculation
 timing information                             : on
 memory usage estimate                          : on
 write extra output files                       : on
 write final potential to formatted file        : off
 write final density to formatted file          : off
 write BibTeX reference list                    : on
 write OTFG pseudopotential files               : on
 write electrostatic potential file             : on
 write bands file                               : on
 checkpoint writing                             : both castep_bin and check files
  
 output         length unit                     : A
 output           mass unit                     : amu
 output           time unit                     : ps
 output         charge unit                     : e
 output           spin unit                     : hbar/2
 output         energy unit                     : eV
 output          force unit                     : eV/A
 output       velocity unit                     : A/ps
 output       pressure unit                     : GPa
 output     inv_length unit                     : 1/A
 output      frequency unit                     : cm-1
 output force constant unit                     : eV/A**2
 output         volume unit                     : A**3
 output   IR intensity unit                     : (D/A)**2/amu
 output         dipole unit                     : D
 output         efield unit                     : eV/A/e
 output        entropy unit                     : J/mol/K
 output    efield chi2 unit                     : pm/V
  
 wavefunctions paging                           : none
 random number generator seed                   :          1
 data distribution                              : optimal for this architecture
 optimization strategy                          : maximize speed(+++)
 num active processors in SMP node              :          2

 *********************** Exchange-Correlation Parameters ***********************
  
 using functional                               : Perdew Wang (1991)
 relativistic treatment                         : Koelling-Harmon
 DFT+D: Semi-empirical dispersion correction    : off

 ************************* Pseudopotential Parameters **************************
  
 pseudopotential representation                 : reciprocal space
 <beta|phi> representation                      : reciprocal space
 spin-orbit coupling                            : off

 **************************** Basis Set Parameters *****************************
  
 plane wave basis set cut-off                   :   400.0000   eV
 size of standard grid                          :     1.7500
 size of   fine   gmax                          :    17.9311   1/A
 finite basis set correction                    : none

 **************************** Electronic Parameters ****************************
  
 number of  electrons                           :  1296.    
 net charge of system                           :  0.000    
 treating system as non-spin-polarized
 number of bands                                :        768

 ********************* Electronic Minimization Parameters **********************
  
 Method: Treating system as metallic with density mixing treatment of electrons,
         and number of  SD  steps               :          1
         and number of  CG  steps               :          4
  
 total energy / atom convergence tol.           : 0.1500E-01   eV
 eigen-energy convergence tolerance             : 0.1000E-05   eV
 max force / atom convergence tol.              : ignored
 convergence tolerance window                   :          3   cycles
 max. number of SCF cycles                      :         40
 smearing scheme                                : Gaussian
 smearing width                                 : 0.1000       eV
 Fermi energy convergence tolerance             : 0.2721E-13   eV
 periodic dipole correction                     : NONE

 ************************** Density Mixing Parameters **************************
  
 density-mixing scheme                          : Pulay
 max. length of mixing history                  :         20
 charge density mixing amplitude                : 0.8000    
 cut-off energy for mixing                      :  400.0       eV

 *******************************************************************************
  

                           -------------------------------
                                      Unit Cell
                           -------------------------------
        Real Lattice(A)                      Reciprocal Lattice(1/A)
    12.3642447    -7.1385000     0.0000000        0.508173808   0.000000000   0.000000000
     0.0000000    14.2770000     0.0000000        0.254086904   0.440091427   0.000000000
     0.0000000     0.0000000    27.5000000        0.000000000   0.000000000   0.228479466

                       Lattice parameters(A)       Cell Angles
                    a =     14.277000          alpha =   90.000000
                    b =     14.277000          beta  =   90.000000
                    c =     27.500000          gamma =  120.000000

                       Current cell volume =          4854.418839       A**3
                                   density =             1.134206   AMU/A**3
                                           =             1.883393     g/cm^3

                           -------------------------------
                                     Cell Contents
                           -------------------------------
                         Total number of ions in cell =  270
                      Total number of species in cell =    2
                        Max number of any one species =  162

            xxxxxxxxxxxxxxxxxxxxxxxxxxxxxxxxxxxxxxxxxxxxxxxxxxxxxxxxxxxx
            x  Element    Atom        Fractional coordinates of atoms  x
            x            Number           u          v          w      x
            x----------------------------------------------------------x
            x  O            1         0.102000   0.000000   0.645700   x 
            x  O            2         0.000000   0.102000   0.645700   x 
            x  O            3         0.231333   0.231333   0.645700   x 
            x  O            4         0.009111   0.222222   0.724433   x 
            x  O            5         0.111111   0.120222   0.724433   x 
            x  O            6         0.213111   0.324222   0.724433   x 
            x  O            7         0.120222   0.111111   0.566967   x 
            x  O            8         0.222222   0.009111   0.566967   x 
            x  O            9         0.324222   0.213111   0.566967   x 
            x  O           10         0.324222   0.111111   0.803167   x 
            x  O           11         0.222222   0.213111   0.803167   x 
            x  O           12         0.120222   0.009111   0.803167   x 
            x  O           13         0.213111   0.222222   0.960633   x 
            x  O           14         0.111111   0.324222   0.960633   x 
            x  O           15         0.009111   0.120222   0.960633   x 
            x  O           16         0.231333   0.000000   0.881900   x 
            x  O           17         0.000000   0.231333   0.881900   x 
            x  O           18         0.102000   0.102000   0.881900   x 
            x  O           19         0.102000   0.333333   0.645700   x 
            x  O           20         0.000000   0.435333   0.645700   x 
            x  O           21         0.231333   0.564667   0.645700   x 
            x  O           22         0.009111   0.555556   0.724433   x 
            x  O           23         0.111111   0.453556   0.724433   x 
            x  O           24         0.213111   0.657556   0.724433   x 
            x  O           25         0.120222   0.444444   0.566967   x 
            x  O           26         0.222222   0.342444   0.566967   x 
            x  O           27         0.324222   0.546444   0.566967   x 
            x  O           28         0.324222   0.444444   0.803167   x 
            x  O           29         0.222222   0.546444   0.803167   x 
            x  O           30         0.120222   0.342444   0.803167   x 
            x  O           31         0.213111   0.555556   0.960633   x 
            x  O           32         0.111111   0.657556   0.960633   x 
            x  O           33         0.009111   0.453556   0.960633   x 
            x  O           34         0.231333   0.333333   0.881900   x 
            x  O           35         0.000000   0.564667   0.881900   x 
            x  O           36         0.102000   0.435333   0.881900   x 
            x  O           37         0.102000   0.666667   0.645700   x 
            x  O           38         0.000000   0.768667   0.645700   x 
            x  O           39         0.231333   0.898000   0.645700   x 
            x  O           40         0.009111   0.888889   0.724433   x 
            x  O           41         0.111111   0.786889   0.724433   x 
            x  O           42         0.213111   0.990889   0.724433   x 
            x  O           43         0.120222   0.777778   0.566967   x 
            x  O           44         0.222222   0.675778   0.566967   x 
            x  O           45         0.324222   0.879778   0.566967   x 
            x  O           46         0.324222   0.777778   0.803167   x 
            x  O           47         0.222222   0.879778   0.803167   x 
            x  O           48         0.120222   0.675778   0.803167   x 
            x  O           49         0.213111   0.888889   0.960633   x 
            x  O           50         0.111111   0.990889   0.960633   x 
            x  O           51         0.009111   0.786889   0.960633   x 
            x  O           52         0.231333   0.666667   0.881900   x 
            x  O           53         0.000000   0.898000   0.881900   x 
            x  O           54         0.102000   0.768667   0.881900   x 
            x  O           55         0.435333   0.000000   0.645700   x 
            x  O           56         0.333333   0.102000   0.645700   x 
            x  O           57         0.564667   0.231333   0.645700   x 
            x  O           58         0.342444   0.222222   0.724433   x 
            x  O           59         0.444444   0.120222   0.724433   x 
            x  O           60         0.546444   0.324222   0.724433   x 
            x  O           61         0.453556   0.111111   0.566967   x 
            x  O           62         0.555556   0.009111   0.566967   x 
            x  O           63         0.657556   0.213111   0.566967   x 
            x  O           64         0.657556   0.111111   0.803167   x 
            x  O           65         0.555556   0.213111   0.803167   x 
            x  O           66         0.453556   0.009111   0.803167   x 
            x  O           67         0.546444   0.222222   0.960633   x 
            x  O           68         0.444444   0.324222   0.960633   x 
            x  O           69         0.342444   0.120222   0.960633   x 
            x  O           70         0.564667   0.000000   0.881900   x 
            x  O           71         0.333333   0.231333   0.881900   x 
            x  O           72         0.435333   0.102000   0.881900   x 
            x  O           73         0.435333   0.333333   0.645700   x 
            x  O           74         0.333333   0.435333   0.645700   x 
            x  O           75         0.564667   0.564667   0.645700   x 
            x  O           76         0.342444   0.555556   0.724433   x 
            x  O           77         0.444444   0.453556   0.724433   x 
            x  O           78         0.546444   0.657556   0.724433   x 
            x  O           79         0.453556   0.444444   0.566967   x 
            x  O           80         0.555556   0.342444   0.566967   x 
            x  O           81         0.657556   0.546444   0.566967   x 
            x  O           82         0.657556   0.444444   0.803167   x 
            x  O           83         0.555556   0.546444   0.803167   x 
            x  O           84         0.453556   0.342444   0.803167   x 
            x  O           85         0.546444   0.555556   0.960633   x 
            x  O           86         0.444444   0.657556   0.960633   x 
            x  O           87         0.342444   0.453556   0.960633   x 
            x  O           88         0.564667   0.333333   0.881900   x 
            x  O           89         0.333333   0.564667   0.881900   x 
            x  O           90         0.435333   0.435333   0.881900   x 
            x  O           91         0.435333   0.666667   0.645700   x 
            x  O           92         0.333333   0.768667   0.645700   x 
            x  O           93         0.564667   0.898000   0.645700   x 
            x  O           94         0.342444   0.888889   0.724433   x 
            x  O           95         0.444444   0.786889   0.724433   x 
            x  O           96         0.546444   0.990889   0.724433   x 
            x  O           97         0.453556   0.777778   0.566967   x 
            x  O           98         0.555556   0.675778   0.566967   x 
            x  O           99         0.657556   0.879778   0.566967   x 
            x  O          100         0.657556   0.777778   0.803167   x 
            x  O          101         0.555556   0.879778   0.803167   x 
            x  O          102         0.453556   0.675778   0.803167   x 
            x  O          103         0.546444   0.888889   0.960633   x 
            x  O          104         0.444444   0.990889   0.960633   x 
            x  O          105         0.342444   0.786889   0.960633   x 
            x  O          106         0.564667   0.666667   0.881900   x 
            x  O          107         0.333333   0.898000   0.881900   x 
            x  O          108         0.435333   0.768667   0.881900   x 
            x  O          109         0.768667   0.000000   0.645700   x 
            x  O          110         0.666667   0.102000   0.645700   x 
            x  O          111         0.898000   0.231333   0.645700   x 
            x  O          112         0.675778   0.222222   0.724433   x 
            x  O          113         0.777778   0.120222   0.724433   x 
            x  O          114         0.879778   0.324222   0.724433   x 
            x  O          115         0.786889   0.111111   0.566967   x 
            x  O          116         0.888889   0.009111   0.566967   x 
            x  O          117         0.990889   0.213111   0.566967   x 
            x  O          118         0.990889   0.111111   0.803167   x 
            x  O          119         0.888889   0.213111   0.803167   x 
            x  O          120         0.786889   0.009111   0.803167   x 
            x  O          121         0.879778   0.222222   0.960633   x 
            x  O          122         0.777778   0.324222   0.960633   x 
            x  O          123         0.675778   0.120222   0.960633   x 
            x  O          124         0.898000   0.000000   0.881900   x 
            x  O          125         0.666667   0.231333   0.881900   x 
            x  O          126         0.768667   0.102000   0.881900   x 
            x  O          127         0.768667   0.333333   0.645700   x 
            x  O          128         0.666667   0.435333   0.645700   x 
            x  O          129         0.898000   0.564667   0.645700   x 
            x  O          130         0.675778   0.555556   0.724433   x 
            x  O          131         0.777778   0.453556   0.724433   x 
            x  O          132         0.879778   0.657556   0.724433   x 
            x  O          133         0.786889   0.444444   0.566967   x 
            x  O          134         0.888889   0.342444   0.566967   x 
            x  O          135         0.990889   0.546444   0.566967   x 
            x  O          136         0.990889   0.444444   0.803167   x 
            x  O          137         0.888889   0.546444   0.803167   x 
            x  O          138         0.786889   0.342444   0.803167   x 
            x  O          139         0.879778   0.555556   0.960633   x 
            x  O          140         0.777778   0.657556   0.960633   x 
            x  O          141         0.675778   0.453556   0.960633   x 
            x  O          142         0.898000   0.333333   0.881900   x 
            x  O          143         0.666667   0.564667   0.881900   x 
            x  O          144         0.768667   0.435333   0.881900   x 
            x  O          145         0.768667   0.666667   0.645700   x 
            x  O          146         0.666667   0.768667   0.645700   x 
            x  O          147         0.898000   0.898000   0.645700   x 
            x  O          148         0.675778   0.888889   0.724433   x 
            x  O          149         0.777778   0.786889   0.724433   x 
            x  O          150         0.879778   0.990889   0.724433   x 
            x  O          151         0.786889   0.777778   0.566967   x 
            x  O          152         0.888889   0.675778   0.566967   x 
            x  O          153         0.990889   0.879778   0.566967   x 
            x  O          154         0.990889   0.777778   0.803167   x 
            x  O          155         0.888889   0.879778   0.803167   x 
            x  O          156         0.786889   0.675778   0.803167   x 
            x  O          157         0.879778   0.888889   0.960633   x 
            x  O          158         0.777778   0.990889   0.960633   x 
            x  O          159         0.675778   0.786889   0.960633   x 
            x  O          160         0.898000   0.666667   0.881900   x 
            x  O          161         0.666667   0.898000   0.881900   x 
            x  O          162         0.768667   0.768667   0.881900   x 
            x  Al           1         0.000000   0.000000   0.693885   x 
            x  Al           2         0.000000   0.000000   0.597515   x 
            x  Al           3         0.222222   0.111111   0.615151   x 
            x  Al           4         0.111111   0.222222   0.676249   x 
            x  Al           5         0.222222   0.111111   0.754982   x 
            x  Al           6         0.111111   0.222222   0.772618   x 
            x  Al           7         0.222222   0.111111   0.991182   x 
            x  Al           8         0.111111   0.222222   0.536418   x 
            x  Al           9         0.000000   0.000000   0.833715   x 
            x  Al          10         0.222222   0.111111   0.851351   x 
            x  Al          11         0.000000   0.000000   0.930085   x 
            x  Al          12         0.111111   0.222222   0.912449   x 
            x  Al          13         0.000000   0.333333   0.693885   x 
            x  Al          14         0.000000   0.333333   0.597515   x 
            x  Al          15         0.222222   0.444444   0.615151   x 
            x  Al          16         0.111111   0.555556   0.676249   x 
            x  Al          17         0.222222   0.444444   0.754982   x 
            x  Al          18         0.111111   0.555556   0.772618   x 
            x  Al          19         0.222222   0.444444   0.991182   x 
            x  Al          20         0.111111   0.555556   0.536418   x 
            x  Al          21         0.000000   0.333333   0.833715   x 
            x  Al          22         0.222222   0.444444   0.851351   x 
            x  Al          23         0.000000   0.333333   0.930085   x 
            x  Al          24         0.111111   0.555556   0.912449   x 
            x  Al          25         0.000000   0.666667   0.693885   x 
            x  Al          26         0.000000   0.666667   0.597515   x 
            x  Al          27         0.222222   0.777778   0.615151   x 
            x  Al          28         0.111111   0.888889   0.676249   x 
            x  Al          29         0.222222   0.777778   0.754982   x 
            x  Al          30         0.111111   0.888889   0.772618   x 
            x  Al          31         0.222222   0.777778   0.991182   x 
            x  Al          32         0.111111   0.888889   0.536418   x 
            x  Al          33         0.000000   0.666667   0.833715   x 
            x  Al          34         0.222222   0.777778   0.851351   x 
            x  Al          35         0.000000   0.666667   0.930085   x 
            x  Al          36         0.111111   0.888889   0.912449   x 
            x  Al          37         0.333333   0.000000   0.693885   x 
            x  Al          38         0.333333   0.000000   0.597515   x 
            x  Al          39         0.555556   0.111111   0.615151   x 
            x  Al          40         0.444444   0.222222   0.676249   x 
            x  Al          41         0.555556   0.111111   0.754982   x 
            x  Al          42         0.444444   0.222222   0.772618   x 
            x  Al          43         0.555556   0.111111   0.991182   x 
            x  Al          44         0.444444   0.222222   0.536418   x 
            x  Al          45         0.333333   0.000000   0.833715   x 
            x  Al          46         0.555556   0.111111   0.851351   x 
            x  Al          47         0.333333   0.000000   0.930085   x 
            x  Al          48         0.444444   0.222222   0.912449   x 
            x  Al          49         0.333333   0.333333   0.693885   x 
            x  Al          50         0.333333   0.333333   0.597515   x 
            x  Al          51         0.555556   0.444444   0.615151   x 
            x  Al          52         0.444444   0.555556   0.676249   x 
            x  Al          53         0.555556   0.444444   0.754982   x 
            x  Al          54         0.444444   0.555556   0.772618   x 
            x  Al          55         0.555556   0.444444   0.991182   x 
            x  Al          56         0.444444   0.555556   0.536418   x 
            x  Al          57         0.333333   0.333333   0.833715   x 
            x  Al          58         0.555556   0.444444   0.851351   x 
            x  Al          59         0.333333   0.333333   0.930085   x 
            x  Al          60         0.444444   0.555556   0.912449   x 
            x  Al          61         0.333333   0.666667   0.693885   x 
            x  Al          62         0.333333   0.666667   0.597515   x 
            x  Al          63         0.555556   0.777778   0.615151   x 
            x  Al          64         0.444444   0.888889   0.676249   x 
            x  Al          65         0.555556   0.777778   0.754982   x 
            x  Al          66         0.444444   0.888889   0.772618   x 
            x  Al          67         0.555556   0.777778   0.991182   x 
            x  Al          68         0.444444   0.888889   0.536418   x 
            x  Al          69         0.333333   0.666667   0.833715   x 
            x  Al          70         0.555556   0.777778   0.851351   x 
            x  Al          71         0.333333   0.666667   0.930085   x 
            x  Al          72         0.444444   0.888889   0.912449   x 
            x  Al          73         0.666667   0.000000   0.693885   x 
            x  Al          74         0.666667   0.000000   0.597515   x 
            x  Al          75         0.888889   0.111111   0.615151   x 
            x  Al          76         0.777778   0.222222   0.676249   x 
            x  Al          77         0.888889   0.111111   0.754982   x 
            x  Al          78         0.777778   0.222222   0.772618   x 
            x  Al          79         0.888889   0.111111   0.991182   x 
            x  Al          80         0.777778   0.222222   0.536418   x 
            x  Al          81         0.666667   0.000000   0.833715   x 
            x  Al          82         0.888889   0.111111   0.851351   x 
            x  Al          83         0.666667   0.000000   0.930085   x 
            x  Al          84         0.777778   0.222222   0.912449   x 
            x  Al          85         0.666667   0.333333   0.693885   x 
            x  Al          86         0.666667   0.333333   0.597515   x 
            x  Al          87         0.888889   0.444444   0.615151   x 
            x  Al          88         0.777778   0.555556   0.676249   x 
            x  Al          89         0.888889   0.444444   0.754982   x 
            x  Al          90         0.777778   0.555556   0.772618   x 
            x  Al          91         0.888889   0.444444   0.991182   x 
            x  Al          92         0.777778   0.555556   0.536418   x 
            x  Al          93         0.666667   0.333333   0.833715   x 
            x  Al          94         0.888889   0.444444   0.851351   x 
            x  Al          95         0.666667   0.333333   0.930085   x 
            x  Al          96         0.777778   0.555556   0.912449   x 
            x  Al          97         0.666667   0.666667   0.693885   x 
            x  Al          98         0.666667   0.666667   0.597515   x 
            x  Al          99         0.888889   0.777778   0.615151   x 
            x  Al         100         0.777778   0.888889   0.676249   x 
            x  Al         101         0.888889   0.777778   0.754982   x 
            x  Al         102         0.777778   0.888889   0.772618   x 
            x  Al         103         0.888889   0.777778   0.991182   x 
            x  Al         104         0.777778   0.888889   0.536418   x 
            x  Al         105         0.666667   0.666667   0.833715   x 
            x  Al         106         0.888889   0.777778   0.851351   x 
            x  Al         107         0.666667   0.666667   0.930085   x 
            x  Al         108         0.777778   0.888889   0.912449   x 
            xxxxxxxxxxxxxxxxxxxxxxxxxxxxxxxxxxxxxxxxxxxxxxxxxxxxxxxxxxxx


                         No user defined ionic velocities

                           -------------------------------
                                   Details of Species
                           -------------------------------

                               Mass of species in AMU
                                    O   15.9994000
                                    Al   26.9815400

                          Electric Quadrupole Moment (Barn)
                                    O   -0.0255800 Isotope 17
                                    Al    0.1466000 Isotope 27

                          Files used for pseudopotentials:
                                    O O_00.usp
                                    Al Al_00.usp

                           -------------------------------
                              k-Points For BZ Sampling
                           -------------------------------
                       MP grid size for SCF calculation is  2  2  1
                            with an offset of   0.000  0.000  0.000
                       Number of kpoints used =             2

                           -------------------------------
                               Symmetry and Constraints
                           -------------------------------

                      Cell is a supercell containing 9 primitive cells
                      Maximum deviation from symmetry =  0.00000         ANG

                      Number of symmetry operations   =           1
                      Number of ionic constraints     =           3
                      Point group of crystal =     1: C1, 1, 1
                      Space group of crystal =   147: P-3, -P 3

             Set iprint > 1 for details on symmetry rotations/translations

                         Centre of mass is constrained
             Set iprint > 1 for details of linear ionic constraints

                         Number of cell constraints= 0
                         Cell constraints are:  1 2 3 4 5 6

                         External pressure/stress (GPa)
                          0.00000   0.00000   0.00000
                                    0.00000   0.00000
                                              0.00000
  
+---------------- MEMORY AND SCRATCH DISK ESTIMATES PER PROCESS --------------+
|                                                     Memory          Disk    |
| Baseline code, static data and system overhead      840.0 MB         0.0 MB |
| BLAS internal memory storage                          0.0 MB         0.0 MB |
| Model and support data                              115.9 MB         0.0 MB |
| Electronic energy minimisation requirements          81.0 MB         0.0 MB |
| Force calculation requirements                        3.3 MB         0.0 MB |
|                                               ----------------------------- |
| Approx. total storage required per process         1036.9 MB         0.0 MB |
|                                                                             |
| Requirements will fluctuate during execution and may exceed these estimates |
+-----------------------------------------------------------------------------+
Calculating approximate eigenstates for fixed initial Hamiltonian
Cut-off for approx. calculation is  155.625 eV
Improving approx. states at cut-off of  200.000 eV
Resetting cut-off to  400.000 eV
Calculating total energy with cut-off of  400.000 eV.
------------------------------------------------------------------------ <-- SCF
SCF loop      Energy           Fermi           Energy gain       Timer   <-- SCF
                               energy          per atom          (sec)   <-- SCF
------------------------------------------------------------------------ <-- SCF
Initial  -7.61261922E+004  0.00000000E+000                       196.09  <-- SCF
      1  -7.79035263E+004  1.71446013E+000   6.58271864E+000     217.88  <-- SCF
      2  -7.79104228E+004  1.71924290E+000   2.55426055E-002     240.02  <-- SCF
      3  -7.78188296E+004  1.84815038E+000  -3.39233902E-001     264.51  <-- SCF
      4  -7.77199042E+004  1.30434472E+000  -3.66390447E-001     290.90  <-- SCF
      5  -7.77148462E+004  1.11487660E+000  -1.87332135E-002     317.24  <-- SCF
      6  -7.77125653E+004  1.04424804E+000  -8.44766253E-003     343.53  <-- SCF
      7  -7.77102390E+004  1.02666849E+000  -8.61627776E-003     368.21  <-- SCF
      8  -7.77081458E+004  9.90605760E-001  -7.75259987E-003     394.08  <-- SCF
      9  -7.77060029E+004  1.09932703E+000  -7.93634430E-003     419.55  <-- SCF
     10  -7.77051703E+004  1.16176330E+000  -3.08388974E-003     443.66  <-- SCF
------------------------------------------------------------------------ <-- SCF
 
Final energy, E             =  -77705.17028896     eV
Final free energy (E-TS)    =  -77705.17028897     eV
(energies not corrected for finite basis set)
 
NB est. 0K energy (E-0.5TS)      =  -77705.17028897     eV
 

Writing analysis data to al3x3.castep_bin

Writing model to al3x3.check

 ************************** Forces **************************
 *                                                          *
 *               Cartesian components (eV/A)                *
 * -------------------------------------------------------- *
 *                         x            y            z      *
 *                                                          *
 * O               1      0.16836      0.02128      0.72232 *
 * O               2     -0.10296      0.12969      0.71841 *
 * O               3     -0.06233     -0.15234      0.72519 *
 * O               4     -0.10787      0.03205      0.30144 *
 * O               5      0.01938     -0.10966      0.30314 *
 * O               6      0.08889      0.07461      0.30211 *
 * O               7     -1.64507      1.74396     -1.02045 *
 * O               8     -0.68449     -2.29157     -1.03037 *
 * O               9      2.34538      0.55375     -1.02308 *
 * O              10      0.09018     -0.02689     -0.30875 *
 * O              11     -0.01799      0.09075     -0.31351 *
 * O              12     -0.06977     -0.06412     -0.30929 *
 * O              13      1.62744     -1.73488      0.97753 *
 * O              14      0.69566      2.28408      0.98121 *
 * O              15     -2.33616     -0.54363      0.97584 *
 * O              16     -0.17589     -0.01389     -0.67475 *
 * O              17      0.09689     -0.14423     -0.66883 *
 * O              18      0.07696      0.15439     -0.67296 *
 * O              19      0.17089      0.02231      0.72116 *
 * O              20     -0.10412      0.13111      0.71872 *
 * O              21     -0.06449     -0.15430      0.72070 *
 * O              22     -0.10642      0.03234      0.30146 *
 * O              23      0.01960     -0.10944      0.30421 *
 * O              24      0.08935      0.07445      0.30127 *
 * O              25     -1.63896      1.73707     -1.02033 *
 * O              26     -0.67433     -2.26502     -1.03718 *
 * O              27      2.32072      0.54983     -1.02583 *
 * O              28      0.09210     -0.02658     -0.30908 *
 * O              29     -0.01908      0.09155     -0.31169 *
 * O              30     -0.06984     -0.06463     -0.30897 *
 * O              31      1.62790     -1.73851      0.97971 *
 * O              32      0.69846      2.29362      0.97209 *
 * O              33     -2.34306     -0.54562      0.97041 *
 * O              34     -0.17821     -0.01340     -0.67339 *
 * O              35      0.09724     -0.14309     -0.67020 *
 * O              36      0.07801      0.15359     -0.67015 *
 * O              37      0.17043      0.02131      0.72252 *
 * O              38     -0.10167      0.13164      0.71724 *
 * O              39     -0.06260     -0.15655      0.72206 *
 * O              40     -0.10798      0.03239      0.30103 *
 * O              41      0.01877     -0.10988      0.30404 *
 * O              42      0.09069      0.07510      0.30212 *
 * O              43     -1.63306      1.72875     -1.02391 *
 * O              44     -0.67708     -2.26864     -1.03502 *
 * O              45      2.30741      0.54859     -1.03654 *
 * O              46      0.09153     -0.02551     -0.30974 *
 * O              47     -0.01771      0.09175     -0.31179 *
 * O              48     -0.07035     -0.06422     -0.30992 *
 * O              49      1.63610     -1.75049      0.96787 *
 * O              50      0.69800      2.29780      0.97087 *
 * O              51     -2.31816     -0.54282      0.98223 *
 * O              52     -0.17655     -0.01136     -0.67136 *
 * O              53      0.09634     -0.14472     -0.66902 *
 * O              54      0.07668      0.15475     -0.67043 *
 * O              55      0.16771      0.02217      0.72352 *
 * O              56     -0.10238      0.13041      0.72042 *
 * O              57     -0.06272     -0.15558      0.72037 *
 * O              58     -0.10620      0.03368      0.30241 *
 * O              59      0.01852     -0.11120      0.30428 *
 * O              60      0.08957      0.07616      0.30112 *
 * O              61     -1.63294      1.73298     -1.02817 *
 * O              62     -0.69043     -2.29868     -1.02384 *
 * O              63      2.29812      0.54527     -1.03783 *
 * O              64      0.09065     -0.02662     -0.30905 *
 * O              65     -0.01742      0.09060     -0.31288 *
 * O              66     -0.07095     -0.06350     -0.30903 *
 * O              67      1.62932     -1.73729      0.97272 *
 * O              68      0.68725      2.26397      0.98431 *
 * O              69     -2.31996     -0.53860      0.97358 *
 * O              70     -0.17788     -0.01141     -0.67484 *
 * O              71      0.09977     -0.14484     -0.66603 *
 * O              72      0.07586      0.15606     -0.67051 *
 * O              73      0.17049      0.02063      0.72408 *
 * O              74     -0.10432      0.12943      0.71981 *
 * O              75     -0.06485     -0.15494      0.72200 *
 * O              76     -0.10688      0.03223      0.30117 *
 * O              77      0.01786     -0.10985      0.30338 *
 * O              78      0.08998      0.07507      0.30119 *
 * O              79     -1.64271      1.74098     -1.02062 *
 * O              80     -0.68029     -2.27292     -1.03886 *
 * O              81      2.33318      0.55166     -1.02629 *
 * O              82      0.09114     -0.02815     -0.31038 *
 * O              83     -0.01871      0.09208     -0.31108 *
 * O              84     -0.07034     -0.06432     -0.30946 *
 * O              85      1.63620     -1.74272      0.97367 *
 * O              86      0.69291      2.27079      0.98169 *
 * O              87     -2.35185     -0.54130      0.96402 *
 * O              88     -0.18102     -0.01224     -0.67204 *
 * O              89      0.09600     -0.14361     -0.66854 *
 * O              90      0.07743      0.15412     -0.67265 *
 * O              91      0.17098      0.02125      0.72335 *
 * O              92     -0.10523      0.13206      0.71787 *
 * O              93     -0.06270     -0.15729      0.72322 *
 * O              94     -0.10827      0.03169      0.30170 *
 * O              95      0.01781     -0.11010      0.30464 *
 * O              96      0.09097      0.07535      0.30285 *
 * O              97     -1.64315      1.74701     -1.01824 *
 * O              98     -0.67188     -2.26637     -1.04128 *
 * O              99      2.31706      0.54996     -1.03228 *
 * O             100      0.09043     -0.02629     -0.30953 *
 * O             101     -0.01853      0.09101     -0.31142 *
 * O             102     -0.07035     -0.06331     -0.30905 *
 * O             103      1.64376     -1.76033      0.96183 *
 * O             104      0.69025      2.27307      0.98210 *
 * O             105     -2.31574     -0.53948      0.98164 *
 * O             106     -0.17797     -0.01156     -0.67364 *
 * O             107      0.09814     -0.14497     -0.66759 *
 * O             108      0.07685      0.15422     -0.67096 *
 * O             109      0.16932      0.02061      0.72550 *
 * O             110     -0.10305      0.13373      0.72191 *
 * O             111     -0.06321     -0.15444      0.72275 *
 * O             112     -0.10699      0.03307      0.30178 *
 * O             113      0.01926     -0.11010      0.30339 *
 * O             114      0.08871      0.07552      0.30175 *
 * O             115     -1.64858      1.74760     -1.01859 *
 * O             116     -0.67791     -2.27909     -1.03760 *
 * O             117      2.32488      0.54981     -1.02730 *
 * O             118      0.09100     -0.02702     -0.30956 *
 * O             119     -0.01792      0.09134     -0.31303 *
 * O             120     -0.06914     -0.06375     -0.30841 *
 * O             121      1.63226     -1.73814      0.97489 *
 * O             122      0.68517      2.26511      0.98360 *
 * O             123     -2.33935     -0.54619      0.96885 *
 * O             124     -0.17737     -0.01287     -0.67367 *
 * O             125      0.09912     -0.14373     -0.66902 *
 * O             126      0.07851      0.15340     -0.66953 *
 * O             127      0.16952      0.02088      0.72177 *
 * O             128     -0.10324      0.12922      0.71708 *
 * O             129     -0.06438     -0.15549      0.72321 *
 * O             130     -0.10764      0.03273      0.30294 *
 * O             131      0.01895     -0.10985      0.30360 *
 * O             132      0.08963      0.07556      0.30034 *
 * O             133     -1.63833      1.73903     -1.02544 *
 * O             134     -0.67580     -2.26970     -1.03863 *
 * O             135      2.33476      0.55325     -1.02641 *
 * O             136      0.09079     -0.02659     -0.31092 *
 * O             137     -0.01745      0.09064     -0.31287 *
 * O             138     -0.07129     -0.06459     -0.30856 *
 * O             139      1.62995     -1.73512      0.97926 *
 * O             140      0.69789      2.29427      0.97538 *
 * O             141     -2.35438     -0.54471      0.96322 *
 * O             142     -0.17720     -0.01109     -0.67079 *
 * O             143      0.09696     -0.14339     -0.67185 *
 * O             144      0.07942      0.15143     -0.67122 *
 * O             145      0.17048      0.02105      0.72444 *
 * O             146     -0.10353      0.13106      0.71745 *
 * O             147     -0.06144     -0.15505      0.71848 *
 * O             148     -0.10838      0.03335      0.30111 *
 * O             149      0.01702     -0.10942      0.30441 *
 * O             150      0.09043      0.07277      0.30204 *
 * O             151     -1.64143      1.74335     -1.01815 *
 * O             152     -0.68193     -2.28113     -1.03293 *
 * O             153      2.30042      0.54756     -1.03702 *
 * O             154      0.09106     -0.02594     -0.30852 *
 * O             155     -0.01666      0.09147     -0.31264 *
 * O             156     -0.06961     -0.06467     -0.30864 *
 * O             157      1.63276     -1.74053      0.97611 *
 * O             158      0.69541      2.29122      0.97786 *
 * O             159     -2.33400     -0.53984      0.97719 *
 * O             160     -0.17702     -0.01160     -0.67058 *
 * O             161      0.09831     -0.14439     -0.67261 *
 * O             162      0.07700      0.15337     -0.67212 *
 * Al              1      0.00029     -0.00053     -0.04553 *
 * Al              2     -0.00692     -0.00671     -0.86089 *
 * Al              3     -0.00087     -0.00386     -1.95233 *
 * Al              4      0.00063     -0.00049     -0.25326 *
 * Al              5      0.00019     -0.00082     -0.07877 *
 * Al              6      0.00073     -0.00018      0.08116 *
 * Al              7      0.00493      0.00449     -7.33358 *
 * Al              8      0.01082      0.01052      7.33379 *
 * Al              9      0.00065     -0.00042      0.05115 *
 * Al             10      0.00053     -0.00064      0.27297 *
 * Al             11     -0.00392     -0.00243      0.85788 *
 * Al             12      0.00374      0.00025      1.96598 *
 * Al             13      0.00033     -0.00078     -0.04541 *
 * Al             14     -0.00638      0.00394     -0.86026 *
 * Al             15      0.00087     -0.00704     -1.96198 *
 * Al             16      0.00064     -0.00017     -0.25308 *
 * Al             17      0.00014     -0.00061     -0.07862 *
 * Al             18      0.00077     -0.00033      0.08104 *
 * Al             19     -0.00959      0.00765     -7.33218 *
 * Al             20      0.01422      0.00371      7.33237 *
 * Al             21      0.00080     -0.00066      0.05102 *
 * Al             22      0.00047     -0.00058      0.27318 *
 * Al             23     -0.00103     -0.00800      0.85799 *
 * Al             24      0.00542     -0.00036      1.96347 *
 * Al             25      0.00045     -0.00076     -0.04547 *
 * Al             26     -0.00098      0.00689     -0.85741 *
 * Al             27      0.00269     -0.00354     -1.96452 *
 * Al             28      0.00076     -0.00030     -0.25285 *
 * Al             29      0.00032     -0.00070     -0.07879 *
 * Al             30      0.00074     -0.00020      0.08094 *
 * Al             31      0.00668     -0.00403     -7.33341 *
 * Al             32     -0.00696      0.00246      7.33407 *
 * Al             33      0.00066     -0.00055      0.05077 *
 * Al             34      0.00055     -0.00068      0.27297 *
 * Al             35     -0.00354      0.00075      0.86149 *
 * Al             36     -0.00159     -0.00188      1.96392 *
 * Al             37      0.00037     -0.00069     -0.04540 *
 * Al             38      0.00240     -0.00404     -0.86076 *
 * Al             39      0.00285      0.00358     -1.96077 *
 * Al             40      0.00058     -0.00036     -0.25332 *
 * Al             41      0.00033     -0.00068     -0.07875 *
 * Al             42      0.00071     -0.00039      0.08099 *
 * Al             43     -0.01057      0.00179     -7.33348 *
 * Al             44      0.01531     -0.00242      7.33271 *
 * Al             45      0.00058     -0.00043      0.05097 *
 * Al             46      0.00056     -0.00063      0.27296 *
 * Al             47      0.00669     -0.00091      0.86160 *
 * Al             48      0.00081      0.00357      1.97176 *
 * Al             49      0.00044     -0.00064     -0.04564 *
 * Al             50     -0.00983      0.01127     -0.85691 *
 * Al             51      0.00093     -0.00634     -1.95778 *
 * Al             52      0.00059     -0.00032     -0.25312 *
 * Al             53      0.00023     -0.00070     -0.07883 *
 * Al             54      0.00078     -0.00030      0.08098 *
 * Al             55     -0.01852     -0.00031     -7.33277 *
 * Al             56      0.01094      0.01054      7.33346 *
 * Al             57      0.00043     -0.00049      0.05110 *
 * Al             58      0.00052     -0.00044      0.27305 *
 * Al             59      0.00350     -0.01523      0.86085 *
 * Al             60      0.00501      0.00631      1.96478 *
 * Al             61      0.00054     -0.00062     -0.04550 *
 * Al             62     -0.00966      0.00294     -0.85868 *
 * Al             63      0.00381     -0.00700     -1.96129 *
 * Al             64      0.00057     -0.00029     -0.25303 *
 * Al             65      0.00019     -0.00062     -0.07880 *
 * Al             66      0.00060     -0.00047      0.08093 *
 * Al             67     -0.00828     -0.01072     -7.33295 *
 * Al             68     -0.00751      0.00540      7.33148 *
 * Al             69      0.00065     -0.00058      0.05083 *
 * Al             70      0.00061     -0.00061      0.27322 *
 * Al             71      0.00328     -0.00180      0.86574 *
 * Al             72     -0.00473      0.00312      1.96703 *
 * Al             73      0.00046     -0.00048     -0.04567 *
 * Al             74     -0.00324     -0.00677     -0.85379 *
 * Al             75      0.00405     -0.00531     -1.95609 *
 * Al             76      0.00050     -0.00061     -0.25317 *
 * Al             77      0.00035     -0.00072     -0.07878 *
 * Al             78      0.00070     -0.00033      0.08103 *
 * Al             79     -0.00213      0.00379     -7.33328 *
 * Al             80     -0.00013      0.01664      7.33392 *
 * Al             81      0.00062     -0.00060      0.05121 *
 * Al             82      0.00059     -0.00063      0.27335 *
 * Al             83      0.00550     -0.00330      0.85448 *
 * Al             84      0.00411      0.00605      1.96832 *
 * Al             85      0.00040     -0.00058     -0.04539 *
 * Al             86     -0.00580     -0.00367     -0.86286 *
 * Al             87     -0.00139     -0.00655     -1.95888 *
 * Al             88      0.00066     -0.00022     -0.25317 *
 * Al             89      0.00018     -0.00073     -0.07878 *
 * Al             90      0.00075     -0.00042      0.08102 *
 * Al             91     -0.01526      0.00046     -7.33486 *
 * Al             92      0.00794      0.00146      7.33218 *
 * Al             93      0.00064     -0.00039      0.05089 *
 * Al             94      0.00059     -0.00059      0.27289 *
 * Al             95      0.00502     -0.01713      0.86040 *
 * Al             96      0.00714      0.00142      1.96176 *
 * Al             97      0.00063     -0.00060     -0.04553 *
 * Al             98     -0.00984      0.00686     -0.85923 *
 * Al             99      0.00550     -0.00153     -1.96164 *
 * Al            100      0.00070     -0.00032     -0.25303 *
 * Al            101      0.00018     -0.00068     -0.07885 *
 * Al            102      0.00067     -0.00042      0.08083 *
 * Al            103      0.00360      0.00171     -7.33454 *
 * Al            104      0.00295      0.00718      7.33303 *
 * Al            105      0.00045     -0.00045      0.05110 *
 * Al            106      0.00049     -0.00056      0.27305 *
 * Al            107     -0.00088     -0.00303      0.85802 *
 * Al            108      0.00282      0.00021      1.96466 *
 *                                                          *
 ************************************************************

Writing analysis data to al3x3.castep_bin

Writing model to al3x3.check
 
 A BibTeX formatted list of references used in this run has been written to 
 al3x3.bib
 
Initialisation time =      3.59 s
Calculation time    =    466.00 s
Finalisation time   =      5.69 s
Total time          =    475.28 s
Peak Memory Use     = 1554240 kB
  
Overall parallel efficiency rating: Good (74%)                                  
  
Data was distributed by:-
G-vector (64-way); efficiency rating: Good (75%)                                
k-point (2-way); efficiency rating: Excellent (99%)                             
  
Parallel notes:
1) Calculation only took 470.8 s, so efficiency estimates may be inaccurate.    
