 +-------------------------------------------------+
 |                                                 |
 |      CCC   AA    SSS  TTTTT  EEEEE  PPPP        |
 |     C     A  A  S       T    E      P   P       |
 |     C     AAAA   SS     T    EEE    PPPP        |
 |     C     A  A     S    T    E      P           |
 |      CCC  A  A  SSS     T    EEEEE  P           |
 |                                                 |
 +-------------------------------------------------+
 |                                                 |
 | Welcome to Academic Release CASTEP version 16.11|          
 | Ab Initio Total Energy Program                  |
 |                                                 |
 | Authors:                                        |
 | M. Segall, M. Probert, C. Pickard, P. Hasnip,   |
 | S. Clark, K. Refson, J. R. Yates, M. Payne      |
 |                                                 |
 | Contributors:                                   |
 | P. Lindan, P. Haynes, J. White, V. Milman,      |
 | N. Govind, M. Gibson, P. Tulip, V. Cocula,      |
 | B. Montanari, D. Quigley, M. Glover,            |
 | L. Bernasconi, A. Perlov, M. Plummer,           |
 | E. McNellis, J. Meyer, J. Gale, D. Jochym       |
 | J. Aarons, B. Walker, R. Gillen, D. Jones       |
 | T. Green, I. J. Bush, C. J. Armstrong,          |
 | E. J. Higgins, E. L. Brown, M. S. McFly         |
 |                                                 |
 | Copyright (c) 2000 - 2015                       |
 |                                                 |
 |     Distributed under the terms of an           |
 |     Agreement between the United Kingdom        |
 |     Car-Parrinello (UKCP) Consortium,           |
 |     Daresbury Laboratory and Accelrys, Inc.     |
 |                                                 |
 | Please cite                                     |
 |                                                 |
 |     "First principles methods using CASTEP"     |
 |                                                 |
 |         Zeitschrift fuer Kristallographie       |
 |           220(5-6) pp. 567-570 (2005)           |
 |                                                 |
 | S. J. Clark, M. D. Segall, C. J. Pickard,       |
 | P. J. Hasnip, M. J. Probert, K. Refson,         |
 | M. C. Payne                                     |
 |                                                 |
 |       in all publications arising from          |
 |              your use of CASTEP                 |
 |                                                 |
 +-------------------------------------------------+
 
 
 Compiled for linux_x86_64_ifort17 on Fri, 24 Mar 2017 09:40:35 +0000
 from code version 
 203e84763863+ Castep161_branch Fri, 04 Mar 2016 19:21:07 +0000
 Compiler: Intel Fortran 17.0.2.174; Optimisation: fast
 MATHLIBS: Intel MKL(2017.0.2) (LAPACK version 3.7.0)
 FFT Lib : fftw3 version fftw-3.3.5
 Fundamental constants values: CODATA 2010
 
 Run started: Mon, 27 Mar 2017 09:48:01 +0100
 
Warning: 8-way band-parallelism selected but the number of bands is not a
         multiple of 8.
 
         Increasing number of bands to 2424.
 
 Pseudo atomic calculation performed for H 1s1
 
 Converged in 11 iterations to a total energy of -12.6567 eV
 
 
 Pseudo atomic calculation performed for C 2s2 2p2
 
 Converged in 14 iterations to a total energy of -147.3905 eV
 
 
 Pseudo atomic calculation performed for N 2s2 2p3
 
 Converged in 20 iterations to a total energy of -264.2113 eV
 
 
 Pseudo atomic calculation performed for O 2s2 2p4
 
 Converged in 20 iterations to a total energy of -431.0043 eV
 
 
 Pseudo atomic calculation performed for Na 2s2 2p6 3s1
 
 Converged in 15 iterations to a total energy of -1155.9750 eV
 
 
 Pseudo atomic calculation performed for P 3s2 3p3
 
 Converged in 16 iterations to a total energy of -175.8975 eV
 
 Calculation parallelised over 416 processes.
 Data is distributed by G-vector(52-way) and band(8-way)
 Each process may use up to 6 threads.

 ************************************ Title ************************************
 

 ***************************** General Parameters ******************************
  
 output verbosity                               : normal  (1)
 write checkpoint data to                       : polyA20-no-wat.check
 type of calculation                            : single point energy
 stress calculation                             : off
 density difference calculation                 : off
 electron localisation func (ELF) calculation   : off
 Hirshfeld analysis                             : off
 unlimited duration calculation
 timing information                             : on
 memory usage estimate                          : on
 write final potential to formatted file        : off
 write final density to formatted file          : off
 write BibTeX reference list                    : on
 write OTFG pseudopotential files               : on
 checkpoint writing                             : off
  
 output         length unit                     : A
 output           mass unit                     : amu
 output           time unit                     : ps
 output         charge unit                     : e
 output           spin unit                     : hbar/2
 output         energy unit                     : eV
 output          force unit                     : eV/A
 output       velocity unit                     : A/ps
 output       pressure unit                     : GPa
 output     inv_length unit                     : 1/A
 output      frequency unit                     : cm-1
 output force constant unit                     : eV/A**2
 output         volume unit                     : A**3
 output   IR intensity unit                     : (D/A)**2/amu
 output         dipole unit                     : D
 output         efield unit                     : eV/A/e
 output        entropy unit                     : J/mol/K
  
 wavefunctions paging                           : none
 random number generator seed                   :  123456789
 data distribution                              : optimal for this architecture
 optimization strategy                          : maximize speed(+++)

 *********************** Exchange-Correlation Parameters ***********************
  
 using functional                               : revised Perdew Burke Ernzerhof
 relativistic treatment                         : Koelling-Harmon
 DFT+D: Semi-empirical dispersion correction    : off

 ************************* Pseudopotential Parameters **************************
  
 pseudopotential representation                 : reciprocal space
 <beta|phi> representation                      : reciprocal space
 spin-orbit coupling                            : off

 **************************** Basis Set Parameters *****************************
  
 plane wave basis set cut-off                   :  1000.0000   eV
 size of standard grid                          :     1.7500
 size of   fine   gmax                          :    28.3515   1/A
 largest prime factor in FFT                    :          5
 finite basis set correction                    : none

 **************************** Electronic Parameters ****************************
  
 number of  electrons                           :  4766.    
 net charge of system                           :  0.000    
 treating system as non-spin-polarized
 number of bands                                :       2424

 ********************* Electronic Minimization Parameters **********************
  
 Method: Treating system as metallic with density mixing treatment of electrons,
         and number of  SD  steps               :          1
         and number of  CG  steps               :          4
  
 total energy / atom convergence tol.           : 0.1000E-03   eV
 eigen-energy convergence tolerance             : 0.1000E-05   eV
 max force / atom convergence tol.              : ignored
 convergence tolerance window                   :          3   cycles
 max. number of SCF cycles                      :         30
 number of fixed-spin iterations                :         10
 smearing scheme                                : Gaussian
 smearing width                                 : 0.1000       eV
 Fermi energy convergence tolerance             : 0.2721E-13   eV
 periodic dipole correction                     : NONE

 ************************** Density Mixing Parameters **************************
  
 density-mixing scheme                          : Pulay
 max. length of mixing history                  :         20
 charge density mixing amplitude                : 0.4000    
 cut-off energy for mixing                      :  1000.       eV
 charge density mixing g-vector                 :  1.500       1/A

 *********************** Population Analysis Parameters ************************
  
 Population analysis with cutoff                :  3.000       A

 ******************************* Developer Code ********************************
  
 bandpar=8

 *******************************************************************************
  
 
                           -------------------------------
                                      Unit Cell
                           -------------------------------
        Real Lattice(A)                      Reciprocal Lattice(1/A)
  66.9769011   0.0000000   0.0000000        0.0938112   0.0000000   0.0000000
   0.0000000  91.0221844   0.0000000        0.0000000   0.0690292   0.0000000
   0.0000000   0.0000000  52.0429911        0.0000000   0.0000000   0.1207307
 
                       Lattice parameters(A)       Cell Angles
                    a =   66.976901          alpha =   90.000000
                    b =   91.022184          beta  =   90.000000
                    c =   52.042991          gamma =   90.000000
 
                       Current cell volume =************       A**3
 
                           -------------------------------
                                     Cell Contents
                           -------------------------------
                         Total number of ions in cell = 1356
                      Total number of species in cell =    6
                        Max number of any one species =  494
 
            xxxxxxxxxxxxxxxxxxxxxxxxxxxxxxxxxxxxxxxxxxxxxxxxxxxxxxxxxxxx
            x  Element    Atom        Fractional coordinates of atoms  x
            x            Number           u          v          w      x
            x----------------------------------------------------------x
            x  H            1         0.812265   0.553349   0.533367   x 
            x  H            2         0.841977   0.540648   0.563784   x 
            x  H            3         0.819925   0.532090   0.554349   x 
            x  H            4         0.823941   0.541813   0.601215   x 
            x  H            5         0.803561   0.570070   0.623312   x 
            x  H            6         0.787824   0.575036   0.552101   x 
            x  H            7         0.762532   0.638471   0.584824   x 
            x  H            8         0.762785   0.626628   0.560344   x 
            x  H            9         0.780747   0.613916   0.655093   x 
            x  H           10         0.789511   0.544724   0.565244   x 
            x  H           11         0.770131   0.558589   0.593125   x 
            x  H           12         0.782344   0.552096   0.622197   x 
            x  H           13         0.772714   0.533925   0.643603   x 
            x  H           14         0.757396   0.518698   0.645697   x 
            x  H           15         0.751812   0.538495   0.678535   x 
            x  H           16         0.720696   0.565280   0.661741   x 
            x  H           17         0.731043   0.550899   0.592068   x 
            x  H           18         0.725444   0.614334   0.555714   x 
            x  H           19         0.732551   0.596140   0.544588   x 
            x  H           20         0.724309   0.616169   0.636474   x 
            x  H           21         0.723205   0.523367   0.655862   x 
            x  H           22         0.711260   0.541879   0.625368   x 
            x  H           23         0.698763   0.549438   0.652730   x 
            x  H           24         0.693642   0.559292   0.695848   x 
            x  H           25         0.678831   0.555898   0.722230   x 
            x  H           26         0.658750   0.572003   0.706474   x 
            x  H           27         0.644133   0.580144   0.653402   x 
            x  H           28         0.671067   0.549514   0.613954   x 
            x  H           29         0.683310   0.600546   0.536883   x 
            x  H           30         0.696494   0.584846   0.545357   x 
            x  H           31         0.647880   0.616938   0.599793   x 
            x  H           32         0.644984   0.544680   0.692447   x 
            x  H           33         0.652703   0.546614   0.650789   x 
            x  H           34         0.629217   0.555656   0.644506   x 
            x  H           35         0.599072   0.584341   0.684473   x 
            x  H           36         0.575482   0.577156   0.688527   x 
            x  H           37         0.580693   0.597492   0.654497   x 
            x  H           38         0.591055   0.600854   0.605941   x 
            x  H           39         0.618706   0.564203   0.603424   x 
            x  H           40         0.651956   0.586571   0.499164   x 
            x  H           41         0.657899   0.574673   0.526161   x 
            x  H           42         0.614122   0.620146   0.528179   x 
            x  H           43         0.563597   0.570070   0.637684   x 
            x  H           44         0.580618   0.569554   0.600657   x 
            x  H           45         0.566628   0.585638   0.589378   x 
            x  H           46         0.518059   0.594482   0.595585   x 
            x  H           47         0.497261   0.584726   0.606383   x 
            x  H           48         0.507683   0.577738   0.557578   x 
            x  H           49         0.533527   0.557721   0.542225   x 
            x  H           50         0.570495   0.540319   0.582461   x 
            x  H           51         0.630158   0.558996   0.498357   x 
            x  H           52         0.627216   0.548284   0.528332   x 
            x  H           53         0.579797   0.584748   0.488116   x 
            x  H           54         0.503502   0.556095   0.598890   x 
            x  H           55         0.536737   0.551415   0.598217   x 
            x  H           56         0.529332   0.538451   0.574736   x 
            x  H           57         0.471999   0.560600   0.529658   x 
            x  H           58         0.450872   0.553579   0.518456   x 
            x  H           59         0.469341   0.563994   0.482294   x 
            x  H           60         0.511818   0.560138   0.460062   x 
            x  H           61         0.509818   0.530146   0.513902   x 
            x  H           62         0.602073   0.531453   0.502123   x 
            x  H           63         0.584157   0.525652   0.524797   x 
            x  H           64         0.578961   0.553678   0.437542   x 
            x  H           65         0.478822   0.531717   0.487770   x 
            x  H           66         0.497933   0.531497   0.452914   x 
            x  H           67         0.487138   0.548152   0.439368   x 
            x  H           68         0.475881   0.536034   0.403820   x 
            x  H           69         0.455471   0.526366   0.392848   x 
            x  H           70         0.484376   0.519588   0.364276   x 
            x  H           71         0.522598   0.509107   0.369464   x 
            x  H           72         0.512654   0.505053   0.441596   x 
            x  H           73         0.605716   0.505316   0.449110   x 
            x  H           74         0.582738   0.505723   0.467575   x 
            x  H           75         0.593279   0.504119   0.370079   x 
            x  H           76         0.475552   0.496385   0.406433   x 
            x  H           77         0.504965   0.486321   0.404665   x 
            x  H           78         0.505742   0.487760   0.369790   x 
            x  H           79         0.485317   0.483717   0.327921   x 
            x  H           80         0.466982   0.468941   0.324482   x 
            x  H           81         0.497604   0.464063   0.302827   x 
            x  H           82         0.542545   0.459416   0.327460   x 
            x  H           83         0.507877   0.458657   0.386027   x 
            x  H           84         0.586142   0.466787   0.450089   x 
            x  H           85         0.560492   0.467578   0.450627   x 
            x  H           86         0.600491   0.464513   0.365582   x 
            x  H           87         0.487586   0.446232   0.349711   x 
            x  H           88         0.520239   0.435487   0.350153   x 
            x  H           89         0.523837   0.438948   0.316911   x 
            x  H           90         0.511236   0.413350   0.300732   x 
            x  H           91         0.498291   0.395453   0.307746   x 
            x  H           92         0.529615   0.393465   0.320677   x 
            x  H           93         0.555311   0.401902   0.369349   x 
            x  H           94         0.505891   0.416228   0.401860   x 
            x  H           95         0.571481   0.438860   0.477605   x 
            x  H           96         0.546069   0.441991   0.471130   x 
            x  H           97         0.600968   0.416129   0.420883   x 
            x  H           98         0.499441   0.395156   0.362719   x 
            x  H           99         0.520747   0.388411   0.393444   x 
            x  H          100         0.537872   0.379105   0.371808   x 
            x  H          101         0.533796   0.356210   0.364122   x 
            x  H          102         0.520926   0.340741   0.372653   x 
            x  H          103         0.553549   0.342993   0.396634   x 
            x  H          104         0.564075   0.363373   0.442096   x 
            x  H          105         0.509892   0.379325   0.437254   x 
            x  H          106         0.543157   0.424831   0.513076   x 
            x  H          107         0.520508   0.419810   0.500144   x 
            x  H          108         0.591144   0.393201   0.497012   x 
            x  H          109         0.513804   0.344224   0.422574   x 
            x  H          110         0.529063   0.351332   0.463886   x 
            x  H          111         0.551533   0.342422   0.453798   x 
            x  H          112         0.564926   0.317099   0.453433   x 
            x  H          113         0.556207   0.299301   0.461580   x 
            x  H          114         0.583858   0.310441   0.486655   x 
            x  H          115         0.573377   0.330062   0.539208   x 
            x  H          116         0.522703   0.336709   0.503622   x 
            x  H          117         0.526181   0.399496   0.554887   x 
            x  H          118         0.512371   0.387675   0.535673   x 
            x  H          119         0.570436   0.371514   0.590281   x 
            x  H          120         0.553430   0.293939   0.506850   x 
            x  H          121         0.536424   0.313945   0.519955   x 
            x  H          122         0.548264   0.311397   0.551429   x 
            x  H          123         0.585799   0.306585   0.587553   x 
            x  H          124         0.586083   0.288567   0.603962   x 
            x  H          125         0.572571   0.305805   0.634072   x 
            x  H          126         0.536274   0.318867   0.639106   x 
            x  H          127         0.513356   0.310463   0.569126   x 
            x  H          128         0.490617   0.375414   0.569126   x 
            x  H          129         0.491304   0.359418   0.551371   x 
            x  H          130         0.523345   0.368866   0.637473   x 
            x  H          131         0.550817   0.280844   0.620910   x 
            x  H          132         0.527122   0.293840   0.598044   x 
            x  H          133         0.514924   0.296268   0.628749   x 
            x  H          134         0.530929   0.309013   0.696655   x 
            x  H          135         0.523584   0.296609   0.722422   x 
            x  H          136         0.502785   0.316330   0.722653   x 
            x  H          137         0.465131   0.323086   0.691006   x 
            x  H          138         0.469983   0.301223   0.632669   x 
            x  H          139         0.449916   0.358067   0.573680   x 
            x  H          140         0.454067   0.338841   0.568472   x 
            x  H          141         0.466907   0.370108   0.649713   x 
            x  H          142         0.487422   0.287578   0.711835   x 
            x  H          143         0.482838   0.293764   0.670465   x 
            x  H          144         0.458740   0.294741   0.682301   x 
            x  H          145         0.441496   0.324163   0.738928   x 
            x  H          146         0.421056   0.316011   0.756163   x 
            x  H          147         0.409679   0.336182   0.729090   x 
            x  H          148         0.395077   0.339708   0.679707   x 
            x  H          149         0.426147   0.309331   0.647599   x 
            x  H          150         0.406454   0.347432   0.549373   x 
            x  H          151         0.416099   0.330227   0.555522   x 
            x  H          152         0.383267   0.368262   0.617470   x 
            x  H          153         0.396480   0.306552   0.723594   x 
            x  H          154         0.391613   0.307431   0.681514   x 
            x  H          155         0.372531   0.320219   0.684857   x 
            x  H          156         0.344387   0.338742   0.729224   x 
            x  H          157         0.321036   0.329986   0.738966   x 
            x  H          158         0.317990   0.347597   0.705052   x 
            x  H          159         0.316049   0.339005   0.647618   x 
            x  H          160         0.349598   0.305783   0.651058   x 
            x  H          161         0.374502   0.329458   0.544262   x 
            x  H          162         0.377354   0.313473   0.563131   x 
            x  H          163         0.327859   0.357847   0.573910   x 
            x  H          164         0.301985   0.320032   0.710240   x 
            x  H          165         0.318050   0.308244   0.674173   x 
            x  H          166         0.300044   0.316813   0.655785   x 
            x  H          167         0.255685   0.355001   0.658571   x 
            x  H          168         0.232140   0.345136   0.661703   x 
            x  H          169         0.230945   0.354441   0.617912   x 
            x  H          170         0.262897   0.350475   0.573449   x 
            x  H          171         0.282500   0.322152   0.624637   x 
            x  H          172         0.337460   0.302695   0.531234   x 
            x  H          173         0.332249   0.297235   0.561901   x 
            x  H          174         0.294519   0.333172   0.503353   x 
            x  H          175         0.245129   0.323613   0.621256   x 
            x  H          176         0.247832   0.322833   0.574794   x 
            x  H          177         0.232573   0.339115   0.571297   x 
            x  H          178         0.194754   0.321185   0.571201   x 
            x  H          179         0.181033   0.305541   0.574429   x 
            x  H          180         0.194395   0.310847   0.530561   x 
            x  H          181         0.234573   0.309177   0.505755   x 
            x  H          182         0.245906   0.293006   0.573065   x 
            x  H          183         0.323350   0.267792   0.525796   x 
            x  H          184         0.310406   0.270604   0.554753   x 
            x  H          185         0.287831   0.287743   0.462214   x 
            x  H          186         0.207086   0.282711   0.555791   x 
            x  H          187         0.226406   0.281019   0.510539   x 
            x  H          188         0.210401   0.293401   0.499798   x 
            x  H          189         0.191663   0.276944   0.475703   x 
            x  H          190         0.175852   0.260772   0.473070   x 
            x  H          191         0.201861   0.263200   0.440617   x 
            x  H          192         0.249310   0.259761   0.445420   x 
            x  H          193         0.232349   0.257871   0.514498   x 
            x  H          194         0.318244   0.237074   0.536960   x 
            x  H          195         0.297550   0.245039   0.552562   x 
            x  H          196         0.310435   0.235294   0.456334   x 
            x  H          197         0.204787   0.235459   0.471802   x 
            x  H          198         0.235604   0.231196   0.458198   x 
            x  H          199         0.233648   0.240293   0.428857   x 
            x  H          200         0.226302   0.223056   0.394059   x 
            x  H          201         0.217359   0.206071   0.384202   x 
            x  H          202         0.258119   0.206532   0.384528   x 
            x  H          203         0.288114   0.204203   0.423592   x 
            x  H          204         0.246548   0.210103   0.472571   x 
            x  H          205         0.312108   0.196249   0.550391   x 
            x  H          206         0.288129   0.205038   0.546663   x 
            x  H          207         0.340983   0.195414   0.476760   x 
            x  H          208         0.234857   0.187053   0.420979   x 
            x  H          209         0.260538   0.180066   0.440117   x 
            x  H          210         0.276409   0.179868   0.411794   x 
            x  H          211         0.273721   0.158379   0.382011   x 
            x  H          212         0.262762   0.141032   0.376420   x 
            x  H          213         0.292146   0.139713   0.396076   x 
            x  H          214         0.315646   0.143602   0.446650   x 
            x  H          215         0.265838   0.157028   0.470246   x 
            x  H          216         0.308076   0.169310   0.570990   x 
            x  H          217         0.285621   0.176188   0.557289   x 
            x  H          218         0.351599   0.153303   0.523951   x 
            x  H          219         0.257835   0.131583   0.431509   x 
            x  H          220         0.279081   0.129661   0.468363   x 
            x  H          221         0.297864   0.120971   0.450551   x 
            x  H          222         0.263569   0.116279   0.402321   x 
            x  H          223         0.394151   0.172837   0.688738   x 
            x  H          224         0.414919   0.155193   0.691294   x 
            x  H          225         0.433329   0.165839   0.681245   x 
            x  H          226         0.433269   0.148579   0.647311   x 
            x  H          227         0.398555   0.139900   0.605115   x 
            x  H          228         0.376772   0.161466   0.653959   x 
            x  H          229         0.329785   0.167058   0.665258   x 
            x  H          230         0.350404   0.179901   0.671387   x 
            x  H          231         0.329770   0.183362   0.649943   x 
            x  H          232         0.342148   0.161554   0.570797   x 
            x  H          233         0.416800   0.178803   0.629998   x 
            x  H          234         0.407797   0.168871   0.591530   x 
            x  H          235         0.424415   0.153951   0.594566   x 
            x  H          236         0.460353   0.169233   0.567108   x 
            x  H          237         0.470043   0.187592   0.559672   x 
            x  H          238         0.450260   0.172639   0.522741   x 
            x  H          239         0.406528   0.171497   0.510136   x 
            x  H          240         0.408574   0.192492   0.573180   x 
            x  H          241         0.365215   0.209674   0.605557   x 
            x  H          242         0.379190   0.195216   0.616241   x 
            x  H          243         0.391553   0.210674   0.602829   x 
            x  H          244         0.342865   0.187910   0.529678   x 
            x  H          245         0.437957   0.203753   0.541014   x 
            x  H          246         0.411933   0.200083   0.508080   x 
            x  H          247         0.428342   0.187943   0.491555   x 
            x  H          248         0.442376   0.198995   0.462694   x 
            x  H          249         0.451544   0.213761   0.444191   x 
            x  H          250         0.420354   0.204598   0.423381   x 
            x  H          251         0.373278   0.211036   0.440501   x 
            x  H          252         0.402960   0.223297   0.495264   x 
            x  H          253         0.406334   0.223484   0.538785   x 
            x  H          254         0.394718   0.239942   0.550141   x 
            x  H          255         0.384431   0.223978   0.559614   x 
            x  H          256         0.332159   0.229581   0.499894   x 
            x  H          257         0.421205   0.236591   0.442865   x 
            x  H          258         0.388552   0.239711   0.439329   x 
            x  H          259         0.386103   0.226890   0.412793   x 
            x  H          260         0.396346   0.243402   0.368369   x 
            x  H          261         0.407484   0.258344   0.353727   x 
            x  H          262         0.374338   0.261749   0.356494   x 
            x  H          263         0.338848   0.264957   0.396442   x 
            x  H          264         0.385267   0.263101   0.436946   x 
            x  H          265         0.388597   0.257003   0.505313   x 
            x  H          266         0.403258   0.260453   0.478528   x 
            x  H          267         0.391732   0.275175   0.495629   x 
            x  H          268         0.323216   0.272329   0.479834   x 
            x  H          269         0.394509   0.280602   0.393271   x 
            x  H          270         0.365678   0.287798   0.412986   x 
            x  H          271         0.349912   0.287238   0.384029   x 
            x  H          272         0.347747   0.308123   0.346617   x 
            x  H          273         0.360169   0.325404   0.341122   x 
            x  H          274         0.326754   0.328502   0.359952   x 
            x  H          275         0.309719   0.326624   0.414234   x 
            x  H          276         0.362065   0.316209   0.419922   x 
            x  H          277         0.389313   0.304618   0.437523   x 
            x  H          278         0.391239   0.310759   0.468728   x 
            x  H          279         0.382192   0.292247   0.463444   x 
            x  H          280         0.322604   0.311309   0.495879   x 
            x  H          281         0.364618   0.338049   0.388640   x 
            x  H          282         0.344402   0.344323   0.424284   x 
            x  H          283         0.323231   0.347772   0.404127   x 
            x  H          284         0.320737   0.372503   0.390101   x 
            x  H          285         0.334474   0.389279   0.386450   x 
            x  H          286         0.311137   0.389850   0.426763   x 
            x  H          287         0.313466   0.371734   0.478777   x 
            x  H          288         0.363812   0.365845   0.448994   x 
            x  H          289         0.405901   0.348640   0.466806   x 
            x  H          290         0.392956   0.335204   0.452472   x 
            x  H          291         0.391657   0.353266   0.440789   x 
            x  H          292         0.351032   0.341159   0.528140   x 
            x  H          293         0.354630   0.388499   0.436312   x 
            x  H          294         0.347553   0.390850   0.482601   x 
            x  H          295         0.322007   0.395233   0.476106   x 
            x  H          296         0.325799   0.424051   0.482870   x 
            x  H          297         0.337713   0.440102   0.489883   x 
            x  H          298         0.328501   0.431631   0.526661   x 
            x  H          299         0.339789   0.403122   0.561248   x 
            x  H          300         0.370113   0.404242   0.502412   x 
            x  H          301         0.395032   0.377194   0.474454   x 
            x  H          302         0.394300   0.396464   0.474012   x 
            x  H          303         0.413784   0.386851   0.489595   x 
            x  H          304         0.382281   0.364505   0.561517   x 
            x  H          305         0.374592   0.427797   0.520608   x 
            x  H          306         0.375114   0.419854   0.564956   x 
            x  H          307         0.348389   0.426775   0.568626   x 
            x  H          308         0.366529   0.448363   0.604193   x 
            x  H          309         0.386432   0.460108   0.608535   x 
            x  H          310         0.384954   0.442354   0.643276   x 
            x  H          311         0.400765   0.407274   0.645870   x 
            x  H          312         0.408529   0.419722   0.577311   x 
            x  H          313         0.441242   0.402990   0.530965   x 
            x  H          314         0.413994   0.406165   0.527160   x 
            x  H          315         0.429073   0.418030   0.542878   x 
            x  H          316         0.440644   0.375260   0.606230   x 
            x  H          317         0.422235   0.441002   0.609900   x 
            x  H          318         0.434448   0.423578   0.641489   x 
            x  H          319         0.414919   0.429258   0.662241   x 
            x  H          320         0.441122   0.453747   0.689910   x 
            x  H          321         0.461771   0.463085   0.685645   x 
            x  H          322         0.465160   0.439453   0.711489   x 
            x  H          323         0.473760   0.408175   0.691294   x 
            x  H          324         0.469027   0.431895   0.630575   x 
            x  H          325         0.457083   0.421853   0.569683   x 
            x  H          326         0.462458   0.436696   0.590493   x 
            x  H          327         0.480345   0.430247   0.569183   x 
            x  H          328         0.485974   0.381731   0.616625   x 
            x  H          329         0.491647   0.446144   0.667660   x 
            x  H          330         0.507757   0.424182   0.668582   x 
            x  H          331         0.503353   0.421842   0.702746   x 
            x  H          332         0.534080   0.433378   0.729512   x 
            x  H          333         0.556923   0.444002   0.724536   x 
            x  H          334         0.560671   0.415745   0.720366   x 
            x  H          335         0.550130   0.394442   0.675519   x 
            x  H          336         0.538111   0.432807   0.654632   x 
            x  H          337         0.524136   0.448649   0.597256   x 
            x  H          338         0.500232   0.441903   0.606652   x 
            x  H          339         0.515894   0.448451   0.630556   x 
            x  H          340         0.531810   0.395200   0.590320   x 
            x  H          341         0.568271   0.434740   0.673117   x 
            x  H          342         0.578543   0.411372   0.652941   x 
            x  H          343         0.580976   0.403572   0.685337   x 
            x  H          344         0.617228   0.409549   0.676960   x 
            x  H          345         0.638698   0.417008   0.668390   x 
            x  H          346         0.634562   0.394783   0.641566   x 
            x  H          347         0.606687   0.387905   0.593509   x 
            x  H          348         0.594160   0.425127   0.615395   x 
            x  H          349         0.555475   0.448660   0.587265   x 
            x  H          350         0.566867   0.445166   0.617605   x 
            x  H          351         0.579842   0.453054   0.589455   x 
            x  H          352         0.566479   0.409856   0.534462   x 
            x  H          353         0.629501   0.423150   0.613531   x 
            x  H          354         0.631621   0.410834   0.574736   x 
            x  H          355         0.637996   0.393981   0.587418   x 
            x  H          356         0.673605   0.398782   0.578368   x 
            x  H          357         0.696867   0.407406   0.571066   x 
            x  H          358         0.686162   0.392476   0.530043   x 
            x  H          359         0.649000   0.395266   0.494034   x 
            x  H          360         0.644207   0.425270   0.542878   x 
            x  H          361         0.620378   0.455109   0.546471   x 
            x  H          362         0.599192   0.443518   0.555099   x 
            x  H          363         0.623439   0.440014   0.567358   x 
            x  H          364         0.594548   0.423512   0.476491   x 
            x  H          365         0.685072   0.424743   0.525892   x 
            x  H          366         0.670664   0.422952   0.484311   x 
            x  H          367         0.677472   0.405473   0.480122   x 
            x  H          368         0.709483   0.402276   0.450013   x 
            x  H          369         0.729475   0.412097   0.437408   x 
            x  H          370         0.700077   0.411383   0.405588   x 
            x  H          371         0.664572   0.424501   0.397633   x 
            x  H          372         0.673381   0.442068   0.461234   x 
            x  H          373         0.665797   0.461635   0.492151   x 
            x  H          374         0.644282   0.470666   0.488442   x 
            x  H          375         0.642505   0.453538   0.505793   x 
            x  H          376         0.610031   0.448122   0.419730   x 
            x  H          377         0.716650   0.439948   0.421575   x 
            x  H          378         0.686461   0.450440   0.420633   x 
            x  H          379         0.684221   0.444364   0.386988   x 
            x  H          380         0.687132   0.444672   0.344215   x 
            x  H          381         0.702869   0.451670   0.320735   x 
            x  H          382         0.674889   0.463437   0.317757   x 
            x  H          383         0.653643   0.484486   0.347616   x 
            x  H          384         0.682638   0.478081   0.409162   x 
            x  H          385         0.686237   0.494846   0.454125   x 
            x  H          386         0.668171   0.487068   0.474723   x 
            x  H          387         0.683609   0.476005   0.456450   x 
            x  H          388         0.617168   0.498736   0.414484   x 
            x  H          389         0.706393   0.481531   0.332360   x 
            x  H          390         0.694866   0.485860   0.373441   x 
            x  H          391         0.682176   0.500515   0.355399   x 
            x  H          392         0.645835   0.504855   0.314855   x 
            x  H          393         0.646536   0.519785   0.294891   x 
            x  H          394         0.621961   0.525553   0.327479   x 
            x  H          395         0.615511   0.533244   0.366831   x 
            x  H          396         0.662811   0.526839   0.400150   x 
            x  H          397         0.673232   0.520719   0.469977   x 
            x  H          398         0.683579   0.520192   0.435909   x 
            x  H          399         0.678309   0.536144   0.455124   x 
            x  H          400         0.605896   0.537100   0.452222   x 
            x  H          401         0.661482   0.540528   0.329593   x 
            x  H          402         0.657570   0.546230   0.370098   x 
            x  H          403         0.633412   0.555744   0.362739   x 
            x  H          404         0.601461   0.570224   0.320908   x 
            x  H          405         0.606836   0.587263   0.305536   x 
            x  H          406         0.581499   0.589582   0.340449   x 
            x  H          407         0.580932   0.588933   0.401341   x 
            x  H          408         0.632845   0.579375   0.380974   x 
            x  H          409         0.662467   0.569224   0.387680   x 
            x  H          410         0.672754   0.573970   0.415349   x 
            x  H          411         0.665319   0.554799   0.411544   x 
            x  H          412         0.612778   0.573575   0.469189   x 
            x  H          413         0.621587   0.603556   0.351940   x 
            x  H          414         0.611241   0.609038   0.393848   x 
            x  H          415         0.586157   0.611631   0.384009   x 
            x  H          416         0.573929   0.633999   0.368811   x 
            x  H          417         0.582246   0.651973   0.358953   x 
            x  H          418         0.570719   0.648348   0.403301   x 
            x  H          419         0.600177   0.643744   0.446785   x 
            x  H          420         0.638175   0.627693   0.400650   x 
            x  H          421         0.681877   0.611477   0.422151   x 
            x  H          422         0.669067   0.598986   0.402706   x 
            x  H          423         0.670291   0.618157   0.392964   x 
            x  H          424         0.635040   0.609005   0.486828   x 
            x  H          425         0.603581   0.667486   0.388198   x 
            x  H          426         0.626365   0.649754   0.401399   x 
            x  H          427         0.626798   0.660103   0.428819   x 
            x  H          428         0.592951   0.664772   0.477548   x 
            x  H          429         0.586740   0.683130   0.489230   x 
            x  H          430         0.598520   0.671704   0.520262   x 
            x  H          431         0.624126   0.655566   0.537882   x 
            x  H          432         0.651882   0.652193   0.476452   x 
            x  H          433         0.691194   0.624650   0.459582   x 
            x  H          434         0.672754   0.636944   0.444825   x 
            x  H          435         0.694448   0.642239   0.463232   x 
            x  H          436         0.669156   0.619355   0.546106   x 
            x  H          437         0.630352   0.689381   0.498991   x 
            x  H          438         0.654674   0.674077   0.510809   x 
            x  H          439         0.649597   0.675077   0.541245   x 
            x  H          440         0.617123   0.683427   0.589916   x 
            x  H          441         0.622722   0.699895   0.603732   x 
            x  H          442         0.636712   0.678615   0.627155   x 
            x  H          443         0.665468   0.657191   0.624734   x 
            x  H          444         0.678831   0.673078   0.560517   x 
            x  H          445         0.718516   0.666123   0.523682   x 
            x  H          446         0.697166   0.658037   0.507676   x 
            x  H          447         0.694598   0.675187   0.521357   x 
            x  H          448         0.709857   0.627375   0.581788   x 
            x  H          449         0.664856   0.699258   0.599831   x 
            x  H          450         0.691507   0.681581   0.605557   x 
            x  H          451         0.682683   0.677220   0.636839   x 
            x  H          452         0.671485   0.686338   0.682301   x 
            x  H          453         0.681817   0.700796   0.701824   x 
            x  H          454         0.694807   0.679615   0.718156   x 
            x  H          455         0.721025   0.651830   0.696271   x 
            x  H          456         0.712843   0.680076   0.645409   x 
            x  H          457         0.746616   0.690535   0.597295   x 
            x  H          458         0.726758   0.681592   0.583402   x 
            x  H          459         0.722204   0.693919   0.609112   x 
            x  H          460         0.758680   0.641415   0.627001   x 
            x  H          461         0.724668   0.695885   0.683896   x 
            x  H          462         0.746855   0.674901   0.686029   x 
            x  H          463         0.735970   0.669683   0.717157   x 
            x  H          464         0.720069   0.704422   0.721615   x 
            x  H          465         0.603820   0.446485   0.750995   x 
            x  H          466         0.624633   0.439695   0.762389   x 
            x  H          467         0.620318   0.440222   0.732740   x 
            x  H          468         0.590293   0.422095   0.740484   x 
            x  H          469         0.599595   0.422457   0.772131   x 
            x  H          470         0.630486   0.414174   0.758450   x 
            x  H          471         0.628844   0.415448   0.725189   x 
            x  H          472         0.604955   0.394234   0.724728   x 
            x  H          473         0.603283   0.395695   0.756817   x 
            x  H          474         0.639131   0.388982   0.760141   x 
            x  H          475         0.640908   0.389257   0.729128   x 
            x  H          476         0.616825   0.370152   0.726803   x 
            x  H          477         0.615436   0.368921   0.761217   x 
            x  H          478         0.652986   0.360648   0.760909   x 
            x  H          479         0.652344   0.362351   0.729032   x 
            x  H          480         0.621782   0.343455   0.729781   x 
            x  H          481         0.627022   0.341730   0.763311   x 
            x  H          482         0.663333   0.333446   0.747939   x 
            x  H          483         0.655002   0.336929   0.717119   x 
            x  H          484         0.629322   0.319263   0.720481   x 
            x  H          485         0.633353   0.316945   0.751148   x 
            x  H          486         0.666409   0.310540   0.742021   x 
            x  H          487         0.659227   0.309913   0.707511   x 
            x  H          488         0.642968   0.289072   0.748016   x 
            x  H          489         0.659302   0.286403   0.721942   x 
            x  H          490         0.632830   0.293621   0.691755   x 
            x  H          491         0.615690   0.295390   0.717080   x 
            x  H          492         0.634771   0.267682   0.704149   x 
            x  H          493         0.610793   0.272472   0.703957   x 
            x  H          494         0.622991   0.272186   0.731857   x 
            x  C            1         0.826285   0.542703   0.559557   x 
            x  C            2         0.815326   0.546581   0.585535   x 
            x  C            3         0.799096   0.568092   0.603482   x 
            x  C            4         0.786525   0.583770   0.566032   x 
            x  C            5         0.781598   0.604380   0.585093   x 
            x  C            6         0.775073   0.618069   0.594220   x 
            x  C            7         0.783240   0.611400   0.635071   x 
            x  C            8         0.787361   0.594910   0.604212   x 
            x  C            9         0.792915   0.543329   0.585593   x 
            x  C           10         0.784091   0.555161   0.602079   x 
            x  C           11         0.757366   0.530332   0.640682   x 
            x  C           12         0.744839   0.538803   0.659628   x 
            x  C           13         0.726997   0.559611   0.645159   x 
            x  C           14         0.729595   0.562478   0.596199   x 
            x  C           15         0.727236   0.584451   0.589801   x 
            x  C           16         0.725519   0.599228   0.581154   x 
            x  C           17         0.726504   0.607336   0.622908   x 
            x  C           18         0.727714   0.582331   0.616183   x 
            x  C           19         0.722876   0.534892   0.661492   x 
            x  C           20         0.713141   0.546186   0.644736   x 
            x  C           21         0.679204   0.554755   0.701382   x 
            x  C           22         0.662527   0.563874   0.691890   x 
            x  C           23         0.653285   0.570345   0.650885   x 
            x  C           24         0.672097   0.561215   0.610726   x 
            x  C           25         0.674382   0.580265   0.589244   x 
            x  C           26         0.676278   0.592394   0.572181   x 
            x  C           27         0.657466   0.607500   0.597410   x 
            x  C           28         0.664065   0.584198   0.611302   x 
            x  C           29         0.642968   0.555711   0.684742   x 
            x  C           30         0.643058   0.555865   0.655516   x 
            x  C           31         0.587964   0.577453   0.675077   x 
            x  C           32         0.584575   0.586099   0.650328   x 
            x  C           33         0.595474   0.589571   0.610034   x 
            x  C           34         0.621931   0.572410   0.589052   x 
            x  C           35         0.629949   0.584165   0.556271   x 
            x  C           36         0.636339   0.589351   0.532003   x 
            x  C           37         0.618960   0.609840   0.536364   x 
            x  C           38         0.617258   0.593108   0.568799   x 
            x  C           39         0.568315   0.581089   0.632189   x 
            x  C           40         0.576497   0.580979   0.603905   x 
            x  C           41         0.512416   0.583440   0.599101   x 
            x  C           42         0.515058   0.573596   0.574794   x 
            x  C           43         0.541261   0.559611   0.560344   x 
            x  C           44         0.575183   0.548097   0.568011   x 
            x  C           45         0.593369   0.557183   0.540323   x 
            x  C           46         0.605806   0.561270   0.520128   x 
            x  C           47         0.583022   0.576804   0.502969   x 
            x  C           48         0.574407   0.563753   0.537306   x 
            x  C           49         0.510131   0.557425   0.579924   x 
            x  C           50         0.530437   0.550152   0.579021   x 
            x  C           51         0.466907   0.551569   0.517534   x 
            x  C           52         0.475970   0.554315   0.491209   x 
            x  C           53         0.507011   0.551020   0.472148   x 
            x  C           54         0.523509   0.533694   0.504833   x 
            x  C           55         0.554296   0.536287   0.496916   x 
            x  C           56         0.574691   0.535924   0.491901   x 
            x  C           57         0.572033   0.549394   0.454739   x 
            x  C           58         0.544546   0.544186   0.478489   x 
            x  C           59         0.474656   0.540451   0.474492   x 
            x  C           60         0.492349   0.542538   0.456603   x 
            x  C           61         0.469953   0.524938   0.402110   x 
            x  C           62         0.484406   0.516435   0.384471   x 
            x  C           63         0.515431   0.506986   0.387910   x 
            x  C           64         0.527510   0.504987   0.433488   x 
            x  C           65         0.558775   0.504899   0.429184   x 
            x  C           66         0.579648   0.505448   0.430836   x 
            x  C           67         0.582888   0.504976   0.385873   x 
            x  C           68         0.551608   0.504119   0.404781   x 
            x  C           69         0.481614   0.499911   0.388006   x 
            x  C           70         0.502472   0.493264   0.387910   x 
            x  C           71         0.481061   0.472522   0.332936   x 
            x  C           72         0.498814   0.463316   0.323675   x 
            x  C           73         0.529884   0.458042   0.340392   x 
            x  C           74         0.523897   0.459339   0.388218   x 
            x  C           75         0.553474   0.463074   0.403282   x 
            x  C           76         0.571600   0.464041   0.415291   x 
            x  C           77         0.588009   0.463843   0.378629   x 
            x  C           78         0.555087   0.462360   0.377476   x 
            x  C           79         0.496738   0.446660   0.332437   x 
            x  C           80         0.518821   0.443705   0.335031   x 
            x  C           81         0.504517   0.405802   0.314528   x 
            x  C           82         0.520403   0.399463   0.334397   x 
            x  C           83         0.539261   0.403638   0.370828   x 
            x  C           84         0.521135   0.419260   0.406049   x 
            x  C           85         0.547129   0.426555   0.427089   x 
            x  C           86         0.561716   0.429708   0.445151   x 
            x  C           87         0.585023   0.417832   0.421786   x 
            x  C           88         0.553579   0.417722   0.407894   x 
            x  C           89         0.511848   0.389004   0.354495   x 
            x  C           90         0.528585   0.388762   0.375094   x 
            x  C           91         0.526629   0.351002   0.380551   x 
            x  C           92         0.540724   0.349530   0.402571   x 
            x  C           93         0.548055   0.363725   0.438561   x 
            x  C           94         0.521807   0.383797   0.448879   x 
            x  C           95         0.536946   0.395991   0.476587   x 
            x  C           96         0.544860   0.406373   0.494822   x 
            x  C           97         0.575840   0.395080   0.491248   x 
            x  C           98         0.550503   0.386719   0.467652   x 
            x  C           99         0.529765   0.342169   0.424611   x 
            x  C          100         0.539410   0.349684   0.447976   x 
            x  C          101         0.556520   0.310770   0.467537   x 
            x  C          102         0.568420   0.312649   0.492074   x 
            x  C          103         0.560746   0.329151   0.526084   x 
            x  C          104         0.529795   0.344982   0.515362   x 
            x  C          105         0.534453   0.364790   0.537191   x 
            x  C          106         0.536140   0.378347   0.551141   x 
            x  C          107         0.561029   0.369075   0.573949   x 
            x  C          108         0.548368   0.354331   0.544531   x 
            x  C          109         0.561627   0.303069   0.515286   x 
            x  C          110         0.550145   0.314055   0.531157   x 
            x  C          111         0.577318   0.297356   0.595258   x 
            x  C          112         0.563836   0.302882   0.617182   x 
            x  C          113         0.534184   0.315396   0.619238   x 
            x  C          114         0.513505   0.320724   0.579559   x 
            x  C          115         0.509250   0.343631   0.584651   x 
            x  C          116         0.504263   0.358286   0.585612   x 
            x  C          117         0.519149   0.360879   0.623081   x 
            x  C          118         0.516477   0.338873   0.607575   x 
            x  C          119         0.548398   0.291885   0.628404   x 
            x  C          120         0.528093   0.298652   0.617182   x 
            x  C          121         0.520194   0.300872   0.703342   x 
            x  C          122         0.500949   0.309243   0.705955   x 
            x  C          123         0.475298   0.317011   0.678574   x 
            x  C          124         0.468132   0.312979   0.631286   x 
            x  C          125         0.462577   0.333963   0.617221   x 
            x  C          126         0.458501   0.346883   0.604174   x 
            x  C          127         0.464130   0.359528   0.641028   x 
            x  C          128         0.468296   0.335259   0.641489   x 
            x  C          129         0.483017   0.299004   0.709164   x 
            x  C          130         0.473193   0.300257   0.682916   x 
            x  C          131         0.427595   0.317988   0.737294   x 
            x  C          132         0.412769   0.325833   0.719328   x 
            x  C          133         0.402796   0.329238   0.677632   x 
            x  C          134         0.418906   0.317824   0.636512   x 
            x  C          135         0.408842   0.332249   0.607613   x 
            x  C          136         0.404154   0.341433   0.586361   x 
            x  C          137         0.391105   0.358045   0.614473   x 
            x  C          138         0.403587   0.338082   0.631267   x 
            x  C          139         0.393255   0.317780   0.717657   x 
            x  C          140         0.388298   0.318351   0.688950   x 
            x  C          141         0.332562   0.331007   0.724305   x 
            x  C          142         0.322843   0.336544   0.700017   x 
            x  C          143         0.324918   0.330777   0.657668   x 
            x  C          144         0.350972   0.314044   0.636262   x 
            x  C          145         0.355660   0.325119   0.601387   x 
            x  C          146         0.359139   0.330150   0.575985   x 
            x  C          147         0.336280   0.348871   0.582057   x 
            x  C          148         0.341999   0.333611   0.614627   x 
            x  C          149         0.305016   0.327008   0.693696   x 
            x  C          150         0.312212   0.319043   0.669139   x 
            x  C          151         0.246563   0.345806   0.652057   x 
            x  C          152         0.241979   0.346091   0.622754   x 
            x  C          153         0.262314   0.341587   0.587457   x 
            x  C          154         0.288502   0.324075   0.605692   x 
            x  C          155         0.305060   0.319944   0.570471   x 
            x  C          156         0.316736   0.315132   0.549123   x 
            x  C          157         0.296326   0.329711   0.523087   x 
            x  C          158         0.290234   0.330557   0.563669   x 
            x  C          159         0.235454   0.331524   0.611667   x 
            x  C          160         0.242830   0.333051   0.583633   x 
            x  C          161         0.196277   0.309254   0.571086   x 
            x  C          162         0.203070   0.304761   0.544742   x 
            x  C          163         0.232871   0.302673   0.523202   x 
            x  C          164         0.255879   0.291522   0.556982   x 
            x  C          165         0.280724   0.285271   0.533482   x 
            x  C          166         0.297685   0.279371   0.522145   x 
            x  C          167         0.286606   0.287710   0.482908   x 
            x  C          168         0.267062   0.292610   0.517418   x 
            x  C          169         0.203040   0.288688   0.538420   x 
            x  C          170         0.218553   0.290764   0.517322   x 
            x  C          171         0.190678   0.265034   0.477432   x 
            x  C          172         0.206056   0.258717   0.459255   x 
            x  C          173         0.240128   0.254872   0.460466   x 
            x  C          174         0.247040   0.254114   0.509060   x 
            x  C          175         0.276692   0.247643   0.508368   x 
            x  C          176         0.295714   0.242205   0.513960   x 
            x  C          177         0.299924   0.237909   0.471399   x 
            x  C          178         0.270974   0.247214   0.483581   x 
            x  C          179         0.208699   0.242238   0.455277   x 
            x  C          180         0.229975   0.241183   0.449206   x 
            x  C          181         0.226601   0.211388   0.398728   x 
            x  C          182         0.248145   0.204928   0.400823   x 
            x  C          183         0.273497   0.201445   0.431470   x 
            x  C          184         0.261971   0.207796   0.476990   x 
            x  C          185         0.288532   0.204741   0.498434   x 
            x  C          186         0.304836   0.203379   0.515055   x 
            x  C          187         0.325739   0.196886   0.483024   x 
            x  C          188         0.294176   0.200610   0.473090   x 
            x  C          189         0.246802   0.188844   0.407106   x 
            x  C          190         0.265271   0.185878   0.422862   x 
            x  C          191         0.265196   0.149524   0.390869   x 
            x  C          192         0.280768   0.143547   0.409469   x 
            x  C          193         0.299596   0.144998   0.449148   x 
            x  C          194         0.278947   0.158335   0.482121   x 
            x  C          195         0.297326   0.162927   0.512576   x 
            x  C          196         0.307061   0.165674   0.536307   x 
            x  C          197         0.336101   0.155435   0.519609   x 
            x  C          198         0.309002   0.156193   0.493842   x 
            x  C          199         0.273647   0.130704   0.426859   x 
            x  C          200         0.287771   0.130364   0.450685   x 
            x  C          201         0.418443   0.162433   0.675249   x 
            x  C          202         0.420981   0.156379   0.649098   x 
            x  C          203         0.397241   0.150139   0.615856   x 
            x  C          204         0.368754   0.162554   0.636070   x 
            x  C          205         0.349658   0.168025   0.635167   x 
            x  C          206         0.340102   0.175177   0.657457   x 
            x  C          207         0.338430   0.167618   0.609900   x 
            x  C          208         0.367739   0.157170   0.589686   x 
            x  C          209         0.423833   0.168069   0.628000   x 
            x  C          210         0.413486   0.160620   0.604827   x 
            x  C          211         0.457008   0.180527   0.561555   x 
            x  C          212         0.444093   0.180165   0.536941   x 
            x  C          213         0.410724   0.179791   0.524259   x 
            x  C          214         0.394390   0.191074   0.563592   x 
            x  C          215         0.376891   0.195754   0.574775   x 
            x  C          216         0.378653   0.203445   0.601042   x 
            x  C          217         0.356780   0.195491   0.562573   x 
            x  C          218         0.374428   0.185285   0.525354   x 
            x  C          219         0.440674   0.195491   0.526238   x 
            x  C          220         0.422355   0.190975   0.510309   x 
            x  C          221         0.439211   0.210147   0.456277   x 
            x  C          222         0.418831   0.211575   0.440309   x 
            x  C          223         0.385611   0.216738   0.449840   x 
            x  C          224         0.387089   0.225088   0.496974   x 
            x  C          225         0.378190   0.227999   0.519782   x 
            x  C          226         0.392165   0.228790   0.543224   x 
            x  C          227         0.356705   0.229592   0.521915   x 
            x  C          228         0.355600   0.225429   0.474127   x 
            x  C          229         0.415666   0.227571   0.431048   x 
            x  C          230         0.392270   0.228856   0.431874   x 
            x  C          231         0.400735   0.254762   0.371712   x 
            x  C          232         0.380982   0.262694   0.375536   x 
            x  C          233         0.354152   0.265968   0.403320   x 
            x  C          234         0.371262   0.265056   0.446669   x 
            x  C          235         0.370501   0.264782   0.472917   x 
            x  C          236         0.389776   0.264024   0.488423   x 
            x  C          237         0.351868   0.266166   0.487213   x 
            x  C          238         0.336564   0.270835   0.444652   x 
            x  C          239         0.381579   0.279459   0.380724   x 
            x  C          240         0.361572   0.282008   0.395442   x 
            x  C          241         0.354256   0.317857   0.355495   x 
            x  C          242         0.339386   0.325437   0.371981   x 
            x  C          243         0.325903   0.325778   0.412640   x 
            x  C          244         0.353122   0.314440   0.436927   x 
            x  C          245         0.361214   0.308914   0.457737   x 
            x  C          246         0.382460   0.303530   0.456430   x 
            x  C          247         0.349240   0.306947   0.481698   x 
            x  C          248         0.322425   0.319757   0.458832   x 
            x  C          249         0.348792   0.339192   0.384086   x 
            x  C          250         0.335922   0.340532   0.407682   x 
            x  C          251         0.331801   0.379776   0.398709   x 
            x  C          252         0.325441   0.384126   0.426878   x 
            x  C          253         0.327396   0.372986   0.468151   x 
            x  C          254         0.360393   0.360044   0.466557   x 
            x  C          255         0.372905   0.349497   0.474588   x 
            x  C          256         0.391299   0.346652   0.458256   x 
            x  C          257         0.369306   0.340939   0.497685   x 
            x  C          258         0.338475   0.355661   0.503065   x 
            x  C          259         0.340416   0.393366   0.441962   x 
            x  C          260         0.334921   0.388905   0.469823   x 
            x  C          261         0.339834   0.428225   0.490575   x 
            x  C          262         0.341551   0.425808   0.519398   x 
            x  C          263         0.350345   0.407549   0.547336   x 
            x  C          264         0.373651   0.395969   0.516573   x 
            x  C          265         0.386686   0.385170   0.511270   x 
            x  C          266         0.397764   0.386983   0.485983   x 
            x  C          267         0.389358   0.372437   0.527679   x 
            x  C          268         0.366589   0.384368   0.557770   x 
            x  C          269         0.361319   0.430434   0.531849   x 
            x  C          270         0.360169   0.421655   0.557289   x 
            x  C          271         0.382759   0.448913   0.602771   x 
            x  C          272         0.391433   0.439014   0.624983   x 
            x  C          273         0.404990   0.414800   0.630536   x 
            x  C          274         0.414471   0.409373   0.583998   x 
            x  C          275         0.423116   0.400265   0.565878   x 
            x  C          276         0.427103   0.406297   0.539592   x 
            x  C          277         0.432463   0.386554   0.573161   x 
            x  C          278         0.423668   0.392871   0.618546   x 
            x  C          279         0.413486   0.440794   0.627577   x 
            x  C          280         0.418652   0.426413   0.642469   x 
            x  C          281         0.455291   0.452626   0.679765   x 
            x  C          282         0.467654   0.439915   0.690833   x 
            x  C          283         0.477627   0.416382   0.676883   x 
            x  C          284         0.473208   0.420546   0.627750   x 
            x  C          285         0.473671   0.415635   0.603232   x 
            x  C          286         0.468475   0.426665   0.582057   x 
            x  C          287         0.480882   0.400946   0.598736   x 
            x  C          288         0.485779   0.397475   0.643987   x 
            x  C          289         0.489348   0.441068   0.686413   x 
            x  C          290         0.496858   0.424556   0.684146   x 
            x  C          291         0.545352   0.437157   0.715947   x 
            x  C          292         0.554773   0.422589   0.704936   x 
            x  C          293         0.550787   0.406154   0.671195   x 
            x  C          294         0.535752   0.424490   0.640125   x 
            x  C          295         0.525390   0.427346   0.617797   x 
            x  C          296         0.515894   0.442771   0.612129   x 
            x  C          297         0.523643   0.415954   0.598428   x 
            x  C          298         0.541560   0.399353   0.627116   x 
            x  C          299         0.571525   0.425830   0.686471   x 
            x  C          300         0.572780   0.410878   0.672502   x 
            x  C          301         0.623842   0.415108   0.660473   x 
            x  C          302         0.625365   0.404418   0.637704   x 
            x  C          303         0.608374   0.399386   0.599005   x 
            x  C          304         0.589084   0.422381   0.596315   x 
            x  C          305         0.574571   0.430170   0.585804   x 
            x  C          306         0.569122   0.445100   0.596853   x 
            x  C          307         0.565434   0.424929   0.560671   x 
            x  C          308         0.586859   0.403847   0.562823   x 
            x  C          309         0.636428   0.412361   0.615299   x 
            x  C          310         0.630128   0.404132   0.592011   x 
            x  C          311         0.681101   0.406714   0.565974   x 
            x  C          312         0.678025   0.402440   0.535058   x 
            x  C          313         0.652673   0.404846   0.505659   x 
            x  C          314         0.633398   0.425391   0.527487   x 
            x  C          315         0.616616   0.434037   0.528140   x 
            x  C          316         0.615108   0.444057   0.550833   x 
            x  C          317         0.601148   0.433872   0.508964   x 
            x  C          318         0.620303   0.413701   0.488596   x 
            x  C          319         0.686281   0.414031   0.516669   x 
            x  C          320         0.671426   0.412658   0.494937   x 
            x  C          321         0.714022   0.413174   0.443614   x 
            x  C          322         0.700391   0.419129   0.421555   x 
            x  C          323         0.671067   0.430258   0.413985   x 
            x  C          324         0.658600   0.443474   0.453279   x 
            x  C          325         0.643640   0.451780   0.464270   x 
            x  C          326         0.649851   0.459470   0.490249   x 
            x  C          327         0.625320   0.454142   0.452165   x 
            x  C          328         0.636846   0.437267   0.417174   x 
            x  C          329         0.706647   0.433916   0.408854   x 
            x  C          330         0.686222   0.441310   0.407087   x 
            x  C          331         0.696987   0.453878   0.339873   x 
            x  C          332         0.682086   0.466183   0.335934   x 
            x  C          333         0.664065   0.480696   0.362258   x 
            x  C          334         0.668066   0.483146   0.410026   x 
            x  C          335         0.661228   0.486728   0.433065   x 
            x  C          336         0.675054   0.486189   0.455796   x 
            x  C          337         0.641833   0.492946   0.435621   x 
            x  C          338         0.635518   0.488233   0.389563   x 
            x  C          339         0.690148   0.481575   0.333244   x 
            x  C          340         0.684072   0.488782   0.358627   x 
            x  C          341         0.649985   0.516435   0.314490   x 
            x  C          342         0.637474   0.525641   0.333763   x 
            x  C          343         0.630949   0.532606   0.373345   x 
            x  C          344         0.650627   0.528355   0.413504   x 
            x  C          345         0.653434   0.528564   0.439291   x 
            x  C          346         0.673785   0.524960   0.450397   x 
            x  C          347         0.636234   0.531640   0.455143   x 
            x  C          348         0.617034   0.537023   0.418039   x 
            x  C          349         0.645596   0.541176   0.334051   x 
            x  C          350         0.642684   0.545933   0.361624   x 
            x  C          351         0.608195   0.581045   0.323348   x 
            x  C          352         0.597116   0.588813   0.346118   x 
            x  C          353         0.594698   0.588966   0.390197   x 
            x  C          354         0.628754   0.578639   0.401034   x 
            x  C          355         0.641714   0.571531   0.417924   x 
            x  C          356         0.661661   0.566291   0.407970   x 
            x  C          357         0.636846   0.568653   0.444210   x 
            x  C          358         0.604358   0.580397   0.435505   x 
            x  C          359         0.605328   0.603787   0.352766   x 
            x  C          360         0.599371   0.604776   0.381627   x 
            x  C          361         0.585904   0.642085   0.369790   x 
            x  C          362         0.586337   0.646579   0.398286   x 
            x  C          363         0.608284   0.639536   0.430183   x 
            x  C          364         0.637145   0.622519   0.419269   x 
            x  C          365         0.651389   0.612499   0.426897   x 
            x  C          366         0.669365   0.610423   0.408912   x 
            x  C          367         0.649836   0.605545   0.452222   x 
            x  C          368         0.620916   0.620794   0.460754   x 
            x  C          369         0.599371   0.660553   0.404396   x 
            x  C          370         0.617004   0.653050   0.417539   x 
            x  C          371         0.598236   0.675846   0.481640   x 
            x  C          372         0.609942   0.671573   0.505351   x 
            x  C          373         0.633532   0.657895   0.521281   x 
            x  C          374         0.656674   0.644612   0.491190   x 
            x  C          375         0.670231   0.633714   0.486502   x 
            x  C          376         0.682086   0.634527   0.461445   x 
            x  C          377         0.675651   0.623661   0.507869   x 
            x  C          378         0.651896   0.636713   0.535423   x 
            x  C          379         0.624827   0.683020   0.515266   x 
            x  C          380         0.641669   0.673155   0.523260   x 
            x  C          381         0.629635   0.690854   0.593260   x 
            x  C          382         0.644446   0.682295   0.609880   x 
            x  C          383         0.668768   0.664640   0.608881   x 
            x  C          384         0.686192   0.662893   0.565340   x 
            x  C          385         0.698853   0.656653   0.548431   x 
            x  C          386         0.702347   0.664739   0.523721   x 
            x  C          387         0.707856   0.642360   0.553331   x 
            x  C          388         0.690746   0.642799   0.596027   x 
            x  C          389         0.662870   0.691678   0.615856   x 
            x  C          390         0.678234   0.679340   0.617028   x 
            x  C          391         0.684803   0.692721   0.686855   x 
            x  C          392         0.700301   0.681856   0.698845   x 
            x  C          393         0.719995   0.662004   0.685299   x 
            x  C          394         0.724145   0.671968   0.641258   x 
            x  C          395         0.734059   0.672309   0.618988   x 
            x  C          396         0.732312   0.685481   0.601887   x 
            x  C          397         0.747855   0.660400   0.611322   x 
            x  C          398         0.739583   0.648677   0.652076   x 
            x  C          399         0.720950   0.688041   0.698980   x 
            x  C          400         0.733462   0.673814   0.697789   x 
            x  C          401         0.603686   0.423798   0.751994   x 
            x  C          402         0.620154   0.413042   0.742386   x 
            x  C          403         0.614063   0.397101   0.741329   x 
            x  C          404         0.624842   0.371646   0.744807   x 
            x  C          405         0.642311   0.360253   0.745115   x 
            x  C          406         0.633189   0.344575   0.744596   x 
            x  C          407         0.649881   0.333644   0.736141   x 
            x  C          408         0.654808   0.308969   0.727610   x 
            x  C          409         0.647104   0.293214   0.729090   x 
            x  C          410         0.629351   0.289863   0.711124   x 
            x  N            1         0.791288   0.581573   0.591607   x 
            x  N            2         0.781299   0.597283   0.560786   x 
            x  N            3         0.765712   0.628100   0.579194   x 
            x  N            4         0.776626   0.622024   0.618854   x 
            x  N            5         0.788033   0.597854   0.630498   x 
            x  N            6         0.727281   0.567642   0.621236   x 
            x  N            7         0.728968   0.571201   0.577138   x 
            x  N            8         0.726445   0.603293   0.557174   x 
            x  N            9         0.724563   0.610324   0.597717   x 
            x  N           10         0.728938   0.593888   0.633476   x 
            x  N           11         0.662885   0.571597   0.625598   x 
            x  N           12         0.680100   0.565565   0.589762   x 
            x  N           13         0.685639   0.592207   0.549334   x 
            x  N           14         0.667887   0.605237   0.575755   x 
            x  N           15         0.655599   0.597909   0.615722   x 
            x  N           16         0.611629   0.585605   0.590358   x 
            x  N           17         0.633069   0.570531   0.568492   x 
            x  N           18         0.649866   0.582473   0.516996   x 
            x  N           19         0.632099   0.602820   0.522972   x 
            x  N           20         0.611017   0.606545   0.559576   x 
            x  N           21         0.562328   0.557414   0.555560   x 
            x  N           22         0.593593   0.547702   0.560191   x 
            x  N           23         0.623155   0.555348   0.514306   x 
            x  N           24         0.601521   0.571795   0.502008   x 
            x  N           25         0.568360   0.573421   0.519494   x 
            x  N           26         0.524494   0.544087   0.485214   x 
            x  N           27         0.541620   0.530135   0.514267   x 
            x  N           28         0.587740   0.529827   0.507407   x 
            x  N           29         0.583440   0.542527   0.472206   x 
            x  N           30         0.552131   0.550745   0.456008   x 
            x  N           31         0.530855   0.505503   0.407701   x 
            x  N           32         0.543799   0.505316   0.447246   x 
            x  N           33         0.590771   0.506031   0.451146   x 
            x  N           34         0.590711   0.504569   0.409604   x 
[...]
 * N       110     -0.11038     -0.45797     -0.89282 *
 * N       111     -1.70470     -0.83127      0.25116 *
 * N       112     -0.03978      1.08426     -0.69153 *
 * N       113      0.25818      0.15005     -1.69307 *
 * N       114     -1.60988      1.55951      0.77254 *
 * N       115      0.23913     -1.46280     -0.00918 *
 * N       116     -1.67753      2.55840      1.51401 *
 * N       117      0.36321     -0.33707      0.56649 *
 * N       118     -0.87109      0.98037     -1.29103 *
 * N       119     -1.11921      2.06548      0.49145 *
 * N       120     -0.35542      0.57976      0.85094 *
 * N       121      0.25403     -0.94544     -0.41782 *
 * N       122      0.20859     -1.03456      1.58848 *
 * N       123     -0.29061     -0.65542     -0.17599 *
 * N       124      0.29371     -1.55361     -0.49020 *
 * N       125      0.44248      0.51078     -0.02907 *
 * N       126      0.35253      1.47331      2.10277 *
 * N       127      0.63202     -0.07703      0.64796 *
 * N       128      1.49293     -0.71939     -1.61109 *
 * N       129     -0.42661      0.05187     -1.02764 *
 * N       130      2.37527     -1.34777      1.16600 *
 * N       131      0.97716     -0.82331     -0.19737 *
 * N       132      1.68263     -0.29887     -1.50820 *
 * N       133      0.32980      0.82774     -0.89997 *
 * N       134      1.34285     -1.11612     -1.48437 *
 * N       135     -0.93414      0.30150      0.81332 *
 * N       136     -0.26502      1.20213     -2.52218 *
 * N       137     -0.35802      0.04823      0.07228 *
 * N       138     -0.16635      1.06153     -0.19411 *
 * N       139     -0.09365      0.10744     -0.23480 *
 * N       140      0.30168     -1.30525      1.88440 *
 * N       141     -0.92925      1.58306      1.19298 *
 * N       142     -1.24947      0.86947      0.88789 *
 * N       143      0.01554      0.25327     -0.13962 *
 * N       144      0.19906      1.59912     -0.38905 *
 * O         1     -0.19465      0.46956     -0.34277 *
 * O         2     -0.04948      0.49806      0.06642 *
 * O         3      1.48027      0.15016      0.73497 *
 * O         4     -1.33219      1.84031     -2.18031 *
 * O         5     -0.00851     -1.15835      0.94290 *
 * O         6      0.49080      0.29537      0.43466 *
 * O         7      1.48619      2.05386      0.05619 *
 * O         8      1.43677      1.88911     -0.63169 *
 * O         9     -0.03058     -0.80989     -1.20499 *
 * O        10      1.21380      0.60239     -0.50685 *
 * O        11     -1.92894      3.80393     -1.04166 *
 * O        12      0.85075      0.57824     -0.83148 *
 * O        13      1.50713      2.16003     -0.20041 *
 * O        14     -1.01626     -0.86769     -1.02545 *
 * O        15     -0.26825      0.23171     -0.07809 *
 * O        16      0.51990     -0.27994     -1.64953 *
 * O        17     -0.03479     -0.22335     -0.71130 *
 * O        18      0.34347      0.21359     -1.02513 *
 * O        19      0.53883     -0.73827      0.66497 *
 * O        20      0.27246      2.22415     -0.45748 *
 * O        21      1.12915     -1.84071     -1.23504 *
 * O        22      3.71214      1.25450     -0.25585 *
 * O        23      0.30025      1.16152     -0.56443 *
 * O        24     -0.87027      0.02303     -0.59326 *
 * O        25      0.20523     -0.30435     -0.62600 *
 * O        26      0.43289      1.06747      0.18410 *
 * O        27     -0.83805      0.43164      1.33061 *
 * O        28      0.60029      1.97615      1.36967 *
 * O        29      0.81637     -0.33439      0.78838 *
 * O        30     -0.56223      0.82148     -0.06124 *
 * O        31      1.69562     -0.09588     -0.95876 *
 * O        32      0.46267     -0.98978      0.18062 *
 * O        33      0.03567      2.53426     -0.19083 *
 * O        34     -0.26903      0.61196     -1.94690 *
 * O        35     -0.39067      0.06795      1.24903 *
 * O        36      3.08721     -1.55052     -1.01952 *
 * O        37     -0.27301      0.95776      0.12407 *
 * O        38     -0.74758     -0.28927      1.18906 *
 * O        39     -1.06444      0.94036      2.31460 *
 * O        40      0.48805     -0.36495     -1.75915 *
 * O        41     -1.03450      1.18353      1.44676 *
 * O        42     -0.93240      0.11835     -1.30220 *
 * O        43      1.04702      1.08720     -0.69365 *
 * O        44      0.95229     -0.18689     -0.67460 *
 * O        45      0.33722     -0.96858     -0.83134 *
 * O        46      1.56230     -0.28148      1.22564 *
 * O        47     -0.72853     -0.22042     -1.12607 *
 * O        48      0.18171     -1.79533     -0.06977 *
 * O        49     -1.33871      1.16077      0.65745 *
 * O        50      0.51048      1.63805      0.28151 *
 * O        51     -0.14850      0.28934      0.03480 *
 * O        52     -0.69407     -0.45222     -0.85380 *
 * O        53      0.96253      0.11165     -0.03503 *
 * O        54     -0.21982      1.20887     -0.35049 *
 * O        55     -0.41232      0.87085     -0.30979 *
 * O        56     -0.71337     -0.03581     -0.15235 *
 * O        57      1.12245      1.13695     -1.51988 *
 * O        58      1.22530      0.78577     -1.45448 *
 * O        59     -0.51912     -0.95656     -0.34593 *
 * O        60      0.13821      0.05894      0.37531 *
 * O        61     -0.99431     -0.10512     -0.04803 *
 * O        62      0.14046      1.75598     -0.26349 *
 * O        63      1.04084      0.76786      0.41459 *
 * O        64      0.43425      0.08438      1.62599 *
 * O        65      0.33694     -0.70429     -0.48092 *
 * O        66     -1.26927      0.63428     -1.56302 *
 * O        67      1.76218      0.21185      0.70057 *
 * O        68      2.72001      2.30911     -0.62174 *
 * O        69     -0.74592      0.27031     -0.60516 *
 * O        70     -1.18778      0.55317      3.25416 *
 * O        71      0.89277     -2.22134     -0.87597 *
 * O        72      0.79357      1.08706      1.10896 *
 * O        73      0.79183     -0.18643      0.11597 *
 * O        74      0.58442      1.20176     -0.56583 *
 * O        75      1.25027     -0.27358     -0.17822 *
 * O        76      0.67874     -0.40330     -1.77530 *
 * O        77      2.00287      1.27283      0.13831 *
 * O        78      1.17609      1.37821     -0.60256 *
 * O        79      0.37356     -0.19582     -0.26102 *
 * O        80     -1.68936      0.40714      0.52110 *
 * O        81      0.30839     -0.91759     -0.73668 *
 * O        82      1.13991      0.22065      0.01433 *
 * O        83      1.48925      2.56268      1.10224 *
 * O        84      1.85302     -1.07338      2.23246 *
 * O        85      0.86876      0.62667      0.05728 *
 * O        86      1.79053     -0.59311     -0.58437 *
 * O        87     -0.79042      0.08546      0.17243 *
 * O        88      0.33012      1.49693      0.42027 *
 * O        89      0.65203     -0.30456     -0.63552 *
 * O        90      0.26006      0.12519      0.19077 *
 * O        91      0.51316     -0.07188      0.21711 *
 * O        92      0.81071      0.38413      0.28952 *
 * O        93      1.20467      2.54838      0.71805 *
 * O        94     -1.28450      0.09983      2.61672 *
 * O        95      0.58853     -0.77863     -0.68328 *
 * O        96      2.21469     -1.64869      0.98545 *
 * O        97      0.26038      0.87090      0.88084 *
 * O        98      0.29078      0.16710      0.30026 *
 * O        99      0.58085     -0.30876     -0.62199 *
 * O       100     -0.40108      0.50346     -0.67314 *
 * O       101     -1.52385      0.48392      1.11548 *
 * O       102      0.45626     -0.19598      0.14072 *
 * O       103     -0.03836     -0.94102      0.14356 *
 * O       104     -0.39422      0.73678      0.18514 *
 * O       105     -0.67737      0.71724     -0.35123 *
 * O       106      0.50916     -0.44301     -1.03746 *
 * O       107     -0.19987     -0.37757     -0.08746 *
 * O       108      1.86914     -0.97148     -0.01367 *
 * O       109      0.16703      0.38737      3.27608 *
 * O       110     -0.53770     -0.37623     -0.13932 *
 * O       111     -0.94080      0.69023      2.08884 *
 * O       112      0.15075     -0.63968     -0.08242 *
 * O       113     -0.68993     -0.24038      0.07150 *
 * O       114     -0.16723     -0.30695      0.71811 *
 * O       115      0.46403      0.01976     -1.15685 *
 * O       116     -2.96916     -0.18473     -4.95653 *
 * O       117     -0.47163     -1.12033     -0.09719 *
 * O       118     -0.46016     -0.11541     -0.78763 *
 * O       119     -0.38507      0.16071      0.84223 *
 * O       120     -0.89438      0.77931      0.89276 *
 * O       121     -1.00217     -0.01908      1.13049 *
 * O       122      0.74724     -0.03146     -0.60162 *
 * O       123      3.17726     -0.42772      0.23412 *
 * O       124     -0.01738     -1.01279     -1.10968 *
 * O       125      0.71341     -0.13494      2.23065 *
 * O       126     -0.66178     -0.59590      0.52262 *
 * O       127     -0.20957     -0.06377      2.84828 *
 * O       128      0.23512      1.25915      0.18556 *
 * O       129      0.78291     -0.73934     -0.01158 *
 * O       130     -1.08798      0.35396     -0.33872 *
 * O       131     -0.78373      0.16125     -0.24964 *
 * O       132      2.44116     -0.64491      1.21422 *
 * O       133     -0.13513     -0.25080      0.16134 *
 * O       134     -0.20352     -0.72596      1.63624 *
 * O       135      0.38827     -0.29731      0.93418 *
 * O       136      1.39102     -0.74492      0.64837 *
 * O       137      1.61267     -0.86001     -2.16399 *
 * O       138     -1.01603     -1.26570     -0.91056 *
 * O       139     -0.46174     -0.28029      0.11671 *
 * O       140     -0.50191     -1.11625     -0.09030 *
 * O       141     -0.21657      0.03059      1.23913 *
 * O       142     -0.58023     -0.34656     -1.37961 *
 * O       143      0.95625     -0.67181     -0.89607 *
 * O       144     -0.07170     -0.69028      0.00476 *
 * O       145     -2.17800      0.55198     -0.40817 *
 * O       146      0.57156     -1.46846      0.85227 *
 * O       147     -0.65994      0.28849      1.34298 *
 * O       148     -1.35438      0.62403      0.55883 *
 * O       149     -0.84214     -1.52007     -0.17446 *
 * O       150      1.10969     -1.38801     -1.70947 *
 * O       151     -0.42076      0.55887     -1.17136 *
 * O       152     -0.73605      0.24042      0.86034 *
 * O       153     -0.50365      0.35825      1.03318 *
 * O       154     -0.33247     -0.73502     -0.25167 *
 * O       155      0.58296     -1.37305      0.39112 *
 * O       156      0.50128     -0.46498     -1.15951 *
 * O       157      0.21783     -0.37023     -1.43561 *
 * O       158     -0.92730      2.10329     -0.71007 *
 * O       159     -4.62970     -3.14780      1.00045 *
 * O       160      0.40689     -0.51104     -0.70364 *
 * O       161     -0.51116      0.22181     -0.30821 *
 * O       162      0.31265     -1.31025     -1.81302 *
 * O       163      0.56609     -0.03989      0.42530 *
 * O       164      0.40863      0.70591      1.52572 *
 * O       165      1.45313     -3.47918      0.44716 *
 * O       166      0.63226     -0.12574      1.35916 *
 * O       167      0.32903     -1.57609      0.24470 *
 * O       168      0.37173     -1.35768      0.43180 *
 * O       169     -0.01854     -1.90509     -1.90392 *
 * O       170      0.41531     -0.43444     -0.60875 *
 * O       171     -0.45200      0.96375      0.82704 *
 * O       172     -0.93712      0.71574      0.70895 *
 * O       173     -0.40204     -1.48682      0.90477 *
 * O       174     -2.66295      3.33499     -0.54548 *
 * O       175      1.07079     -0.52425      0.36318 *
 * O       176     -1.10919      0.48831     -1.62862 *
 * O       177     -1.27250      0.84277      0.28024 *
 * O       178      0.88613     -0.30667     -0.17228 *
 * O       179     -0.02972     -1.05767     -0.01502 *
 * O       180     -0.92724     -0.40807      0.02721 *
 * O       181     -0.39487      1.36356     -0.12800 *
 * O       182      0.28183     -0.94497     -0.36306 *
 * O       183     -1.39146     -0.19772     -2.07821 *
 * O       184      1.36357     -1.38802      0.42964 *
 * O       185      0.05810      0.68313      0.48517 *
 * O       186      0.48327     -1.55835     -2.15051 *
 * O       187     -1.61573     -0.72429      0.60705 *
 * O       188      0.16360      1.28151      0.68427 *
 * O       189     -1.43446     -0.54862      0.68101 *
 * O       190     -1.29151      0.19276      0.29514 *
 * O       191      0.29669     -0.24398      0.01460 *
 * O       192      0.70440     -0.69566     -0.01388 *
 * O       193     -1.08071      0.32937     -1.33246 *
 * O       194     -1.46610     -1.14446      0.35541 *
 * O       195     -0.16854      0.77390     -0.62609 *
 * O       196     -0.07448     -0.07191     -1.89048 *
 * O       197     -0.52666      1.37916      1.66188 *
 * O       198     -0.24823     -0.48561      0.36831 *
 * O       199      1.23098     -0.76040      1.11499 *
 * O       200     -1.02106      0.50621     -1.92990 *
 * O       201     -1.11861     -2.39794      0.67731 *
 * O       202     -1.31065      0.88439     -0.18962 *
 * O       203     -0.27929      1.06611     -3.34547 *
 * O       204      0.23624      0.30582      1.81965 *
 * O       205      0.44936     -0.61376      2.09931 *
 * O       206      0.21799     -0.83589     -0.12005 *
 * O       207     -1.33228      1.09911     -1.11441 *
 * O       208     -2.41990     -5.59609      1.49262 *
 * O       209      0.55706      0.40435      0.69451 *
 * O       210     -0.91286      0.85835     -0.70262 *
 * O       211      2.41544     -0.91083     -0.01500 *
 * O       212     -0.98379     -1.02379     -0.32424 *
 * O       213      1.25984     -0.70660      0.45603 *
 * O       214     -1.19433      0.17944     -0.10060 *
 * O       215     -0.85715     -0.03853      0.71006 *
 * O       216     -0.94970      0.37441      0.58655 *
 * O       217     -1.97685      1.47028     -0.32963 *
 * O       218      2.26925     -1.56327      1.23951 *
 * O       219     -0.67612      1.09589     -0.93485 *
 * O       220     -0.04760      0.24333     -1.80496 *
 * O       221     -0.54032      0.43009      0.54557 *
 * O       222     -1.07571      0.48256      0.31977 *
 * O       223      2.28024      0.40503     -1.20639 *
 * O       224      2.05244     -1.26911     -1.21824 *
 * O       225      0.83758     -0.81281      2.07771 *
 * O       226      0.02329      0.53103     -0.48117 *
 * O       227     -1.00094      1.34676      0.94573 *
 * O       228     -0.21760      0.99222     -1.84293 *
 * O       229     -2.29320     -0.70713     -0.02087 *
 * O       230     -0.68776      0.75482      0.36028 *
 * O       231      0.33922     -0.69815     -1.15014 *
 * O       232      1.29150     -1.49084      0.33507 *
 * O       233      0.85598     -0.14044      0.11423 *
 * O       234      0.06451      0.47484     -0.26452 *
 * O       235      0.35168     -0.41064      0.33846 *
 * O       236     -0.05715      0.76559      1.60601 *
 * Na        1     -0.38691      0.33210      0.24316 *
 * Na        2      0.67319     -0.20954     -0.20435 *
 * Na        3      0.11521     -0.03223      0.38643 *
 * Na        4      0.09809      0.10271     -0.06049 *
 * Na        5     -0.45059      0.40524     -0.39521 *
 * Na        6     -0.45485     -0.21251      0.09357 *
 * Na        7      0.31743      0.51026     -0.52390 *
 * Na        8      0.04364     -0.14591     -0.09027 *
 * Na        9      0.11592      0.05700      0.35160 *
 * Na       10     -0.17433      0.28045     -0.02190 *
 * Na       11      0.02348      0.16746      0.23397 *
 * Na       12     -0.32636      0.07979      0.16250 *
 * Na       13     -0.80719      0.28471      0.49602 *
 * Na       14     -0.01601      0.01304      0.00940 *
 * Na       15     -0.00199     -0.02206     -0.01759 *
 * Na       16     -0.26787     -0.08768     -0.03807 *
 * Na       17      0.14503     -0.39629     -0.08681 *
 * Na       18      0.00046      0.00187      0.00600 *
 * Na       19     -0.69439     -0.66532      0.05967 *
 * Na       20     -0.01864      0.16122      0.04853 *
 * Na       21     -0.17545     -0.02351      0.21055 *
 * Na       22     -0.09950     -0.04903     -0.20773 *
 * Na       23      0.02516     -0.05898     -0.22972 *
 * Na       24      0.08150      0.07047     -0.12477 *
 * Na       25     -0.00916      0.01523      0.11974 *
 * Na       26     -0.03311     -0.08995     -0.04956 *
 * Na       27     -0.37073     -0.19312     -0.05126 *
 * Na       28      0.92687      0.13085     -0.67760 *
 * Na       29      0.00769     -0.00486     -0.00602 *
 * Na       30      0.03048      0.11264     -0.01310 *
 * Na       31      0.00303      0.00014      0.00118 *
 * Na       32      0.15056     -1.01652     -0.13171 *
 * Na       33     -0.70958     -0.73273     -0.56584 *
 * Na       34     -0.03323      0.09451     -0.03263 *
 * P         1      0.17576     -1.81247      0.32149 *
 * P         2     -1.19589     -3.01855      2.91028 *
 * P         3     -0.98813     -1.24755      2.32908 *
 * P         4     -0.62692     -0.96404      2.77950 *
 * P         5     -0.07186     -0.62220      1.83311 *
 * P         6     -2.63508     -2.13201     -1.06284 *
 * P         7     -3.37674     -1.03810      0.01484 *
 * P         8     -1.27789      0.41427     -1.74402 *
 * P         9     -4.34249      1.34791      1.35098 *
 * P        10     -0.38132     -2.51707     -0.94836 *
 * P        11      1.16316     -4.09118      1.43213 *
 * P        12      1.31521     -1.21842     -0.99473 *
 * P        13     -0.52658     -2.71299      0.83401 *
 * P        14      0.47387     -2.46920     -1.09456 *
 * P        15     -1.52908     -1.00356      3.01928 *
 * P        16      0.27505     -1.48873      1.02441 *
 * P        17     -4.04722     -2.18481     -1.48806 *
 * P        18     -2.22457     -0.63475      0.21245 *
 * P        19     -0.43919     -0.71847     -3.44398 *
 * P        20      1.95550     -0.04425      0.83677 *
 * P        21      1.39767      0.53181     -1.96949 *
 * P        22      3.46481      0.10990      0.02665 *
 * P        23      2.22080      2.08793     -4.42212 *
 * P        24     -1.78151      1.10028     -2.69955 *
 * P        25      2.29080      2.85753      0.32865 *
 * P        26      2.68527      2.70343     -1.93339 *
 * P        27      1.38379      1.37734     -1.26995 *
 * P        28      4.22061      4.69153      1.79115 *
 * P        29     -2.08611      5.19606     -0.04655 *
 * P        30      3.11733      0.00747      1.36579 *
 * P        31      2.47757      0.60453      2.36700 *
 * P        32      4.34729      0.41558     -0.63109 *
 * P        33      1.97295      0.12345      1.03131 *
 * P        34      3.14113      0.00512      0.46771 *
 * P        35      3.30740      3.15458     -2.04926 *
 * P        36      1.48185      0.14408      0.03271 *
 * P        37     -4.73541      0.86924      2.32254 *
 * P        38      1.29403      2.89287      1.25346 *
 *                                                    *
 ******************************************************

Population analysis requested but not supported in band parallel -- request ignored 
 
 A BibTeX formatted list of references used in this run has been written to 
 polyA20-no-wat.bib
 
Initialisation time =    276.86 s
Calculation time    =  51669.90 s
Finalisation time   =     17.70 s
Total time          =  51964.46 s
Peak Memory Use     = 59461652 kB
  
Overall parallel efficiency rating: Terrible (29%)                              
  
Data was distributed by:-
G-vector (52-way); efficiency rating: Mediocre (58%)                            
Band (8-way); efficiency rating: Excellent (90%)                                
