 vasp.5.4.4.18Apr17-6-g9f103f2a35 (build Nov 14 2020 21:33:54) complex           
 executed on        HPECrayEX-GNU date 2020.12.09  13:02:54
 running on 4096 total cores
 distrk:  each k-point on 2048 cores,    2 groups
 distr:  one band on NCORES_PER_BAND=  32 cores,   64 groups


--------------------------------------------------------------------------------------------------------


 INCAR:
 POTCAR:    PAW_PBE Cd 06Sep2000                  
 POTCAR:    PAW_PBE Te 08Apr2002                  

 ----------------------------------------------------------------------------- 
|                                                                             |
|           W    W    AA    RRRRR   N    N  II  N    N   GGGG   !!!           |
|           W    W   A  A   R    R  NN   N  II  NN   N  G    G  !!!           |
|           W    W  A    A  R    R  N N  N  II  N N  N  G       !!!           |
|           W WW W  AAAAAA  RRRRR   N  N N  II  N  N N  G  GGG   !            |
|           WW  WW  A    A  R   R   N   NN  II  N   NN  G    G                |
|           W    W  A    A  R    R  N    N  II  N    N   GGGG   !!!           |
|                                                                             |
|      You have enabled k-point parallelism (KPAR>1).                         |
|      This developmental code was originally  written by Paul Kent at ORNL,  |
|      and carefully double checked in Vienna.                                |
|      GW as well as linear response parallelism added by Martijn Marsman     |
|      and Georg Kresse.                                                      |
|      Carefully verify results versus KPAR=1.                                |
|      Report problems to Paul Kent and Vienna.                               |
|                                                                             |
 ----------------------------------------------------------------------------- 

 POTCAR:    PAW_PBE Cd 06Sep2000                  
   VRHFIN =Cd : s2 d10                                                          
   LEXCH  = PE                                                                  
   EATOM  =  1293.1815 eV,   95.0462 Ry                                         
                                                                                
   TITEL  = PAW_PBE Cd 06Sep2000                                                
   LULTRA =        F    use ultrasoft PP ?                                      
   IUNSCR =        1    unscreen: 0-lin 1-nonlin 2-no                           
   RPACOR =    2.000    partial core radius                                     
   POMASS =  112.411; ZVAL   =   12.000    mass and valenz                      
   RCORE  =    2.300    outmost cutoff radius                                   
   RWIGS  =    2.980; RWIGS  =    1.577    wigner-seitz radius (au A)           
   ENMAX  =  274.336; ENMIN  =  205.752 eV                                      
   RCLOC  =    2.054    cutoff for local pot                                    
   LCOR   =        T    correct aug charges                                     
   LPAW   =        T    paw PP                                                  
   EAUG   =  456.106                                                            
   DEXC   =    0.000                                                            
   RMAX   =    2.358    core radius for proj-oper                               
   RAUG   =    1.300    factor for augmentation sphere                          
   RDEP   =    2.450    radius for radial grids                                 
   RDEPT  =    1.955    core radius for aug-charge                              
                                                                                
   Atomic configuration                                                         
   12 entries                                                                   
     n  l   j            E        occ.                                          
     1  0  0.50    -26519.7817   2.0000                                         
     2  0  0.50     -3936.9612   2.0000                                         
     2  1  1.50     -3532.2230   6.0000                                         
     3  0  0.50      -733.7908   2.0000                                         
     3  1  1.50      -601.0792   6.0000                                         
     3  2  2.50      -393.5307  10.0000                                         
     4  0  0.50      -105.8977   2.0000                                         
     4  1  1.50       -66.9488   6.0000                                         
     4  2  2.50       -11.7331  10.0000                                         
     5  0  0.50        -5.6592   2.0000                                         
     5  1  0.50        -1.3606   0.0000                                         
     4  3  2.50        -1.3606   0.0000                                         
   Description                                                                  
     l       E           TYP  RCUT    TYP  RCUT                                 
     2    -11.7331479     23  2.300                                             
     2    -13.0937305     23  2.300                                             
     0     -5.6591502     23  2.300                                             
     0     -1.5561433     23  2.300                                             
     1     -2.7211652     23  2.300                                             
     1      8.3548275     23  2.300                                             
  local pseudopotential read in
  partial core-charges read in
  partial kinetic energy density read in
  atomic valenz-charges read in
  non local Contribution for L=           2  read in
    real space projection operators read in
  non local Contribution for L=           2  read in
    real space projection operators read in
  non local Contribution for L=           0  read in
    real space projection operators read in
  non local Contribution for L=           0  read in
    real space projection operators read in
  non local Contribution for L=           1  read in
    real space projection operators read in
  non local Contribution for L=           1  read in
    real space projection operators read in
    PAW grid and wavefunctions read in

   number of l-projection  operators is LMAX  =           6
   number of lm-projection operators is LMMAX =          18

 POTCAR:    PAW_PBE Te 08Apr2002                  
   VRHFIN =Te: s2p4                                                             
   LEXCH  = PE                                                                  
   EATOM  =   223.2721 eV,   16.4100 Ry                                         
                                                                                
   TITEL  = PAW_PBE Te 08Apr2002                                                
   LULTRA =        F    use ultrasoft PP ?                                      
   IUNSCR =        1    unscreen: 0-lin 1-nonlin 2-no                           
   RPACOR =    2.200    partial core radius                                     
   POMASS =  127.600; ZVAL   =    6.000    mass and valenz                      
   RCORE  =    2.300    outmost cutoff radius                                   
   RWIGS  =    2.900; RWIGS  =    1.535    wigner-seitz radius (au A)           
   ENMAX  =  174.982; ENMIN  =  131.236 eV                                      
   ICORE  =        3    local potential                                         
   LCOR   =        T    correct aug charges                                     
   LPAW   =        T    paw PP                                                  
   EAUG   =  368.792                                                            
   DEXC   =    0.000                                                            
   RMAX   =    2.345    core radius for proj-oper                               
   RAUG   =    1.300    factor for augmentation sphere                          
   RDEP   =    2.397    radius for radial grids                                 
   RDEPT  =    2.174    core radius for aug-charge                              
                                                                                
   Atomic configuration                                                         
   13 entries                                                                   
     n  l   j            E        occ.                                          
     1  0  0.50    -31621.2075   2.0000                                         
     2  0  0.50     -4848.7941   2.0000                                         
     2  1  1.50     -4352.1960   6.0000                                         
     3  0  0.50      -964.9612   2.0000                                         
     3  1  1.50      -803.6179   6.0000                                         
     3  2  2.50      -559.8710  10.0000                                         
     4  0  0.50      -164.3522   2.0000                                         
     4  1  1.50      -114.3756   6.0000                                         
     4  2  2.50       -41.6483  10.0000                                         
     5  0  0.50       -15.1072   2.0000                                         
     5  1  0.50        -5.9526   4.0000                                         
     5  2  1.50        -5.4423   0.0000                                         
     4  3  2.50        -5.4423   0.0000                                         
   Description                                                                  
     l       E           TYP  RCUT    TYP  RCUT                                 
     0    -15.1072389     23  2.300                                             
     0    -16.4678215     23  2.300                                             
     1     -5.9526306     23  2.300                                             
     1     -2.4873968     23  2.300                                             
     2     -5.4423304     23  2.300                                             
     3     -1.3605826     23  2.300                                             
  local pseudopotential read in
  partial core-charges read in
  partial kinetic energy density read in
  atomic valenz-charges read in
  non local Contribution for L=           0  read in
    real space projection operators read in
  non local Contribution for L=           0  read in
    real space projection operators read in
  non local Contribution for L=           1  read in
    real space projection operators read in
  non local Contribution for L=           1  read in
    real space projection operators read in
  non local Contribution for L=           2  read in
    real space projection operators read in
    PAW grid and wavefunctions read in

   number of l-projection  operators is LMAX  =           5
   number of lm-projection operators is LMMAX =          13


 ----------------------------------------------------------------------------- 
|                                                                             |
|  ADVICE TO THIS USER RUNNING 'VASP/VAMP'   (HEAR YOUR MASTER'S VOICE ...):  |
|                                                                             |
|      You have a (more or less) 'large supercell' and for larger cells       |
|      it might be more efficient to use real space projection opertators     |
|      So try LREAL= Auto  in the INCAR   file.                               |
|      Mind:          For very  accurate calculation you might also keep the  |
|      reciprocal projection scheme          (i.e. LREAL=.FALSE.)             |
|                                                                             |
 ----------------------------------------------------------------------------- 

  PAW_PBE Cd 06Sep2000                  :
 energy of atom  1       EATOM=-1293.1815
 kinetic energy error for atom=    0.0084 (will be added to EATOM!!)
  PAW_PBE Te 08Apr2002                  :
 energy of atom  2       EATOM= -223.2721
 kinetic energy error for atom=    0.0008 (will be added to EATOM!!)


 POSCAR: Cd33 Te32                               
  positions in direct lattice
  No initial velocities read in
 exchange correlation table for  LEXCH =        8
   RHO(1)=    0.500       N(1)  =     2000
   RHO(2)=  100.500       N(2)  =     4000



--------------------------------------------------------------------------------------------------------


 ion  position               nearest neighbor table
   1  0.004  0.996  0.004-  44 2.79  35 2.93  54 2.93  65 2.93  33 2.94
   2  0.001  0.999  0.497-  55 2.82  34 2.82  64 2.82  45 2.84
   3  0.001  0.503  0.001-  63 2.82  56 2.82  37 2.82  42 2.84
   4  1.000  0.501  0.499-  57 2.82  62 2.82  36 2.82  43 2.84
   5  0.497  0.999  0.001-  39 2.82  50 2.82  61 2.82  48 2.84
   6  0.499  0.000  0.499-  38 2.82  51 2.82  60 2.82  49 2.84
   7  0.499  0.501  1.000-  41 2.82  59 2.82  52 2.82  46 2.84
   8  0.501  0.499  0.501-  47 2.82  40 2.83  53 2.83  58 2.83
   9  0.001  0.251  0.253-  54 2.82  34 2.82  62 2.82  42 2.84
  10  0.004  0.254  0.746-  43 2.79  35 2.93  55 2.93  63 2.93  33 2.94
  11  1.000  0.749  0.251-  56 2.82  64 2.82  36 2.82  44 2.84
  12  0.001  0.747  0.749-  65 2.82  57 2.82  37 2.82  45 2.84
  13  0.499  0.250  0.251-  38 2.82  50 2.82  58 2.82  46 2.84
  14  0.497  0.251  0.749-  39 2.82  51 2.82  59 2.82  47 2.84
  15  0.501  0.751  0.249-  48 2.82  40 2.83  52 2.83  60 2.83
  16  0.499  0.749  0.750-  41 2.82  61 2.82  53 2.82  49 2.84
  17  0.251  0.000  0.251-  34 2.82  50 2.82  60 2.82  44 2.84
  18  0.253  0.999  0.749-  35 2.82  51 2.82  61 2.82  45 2.84
  19  0.249  0.499  0.249-  42 2.82  36 2.83  52 2.83  58 2.83
  20  0.251  0.501  0.750-  37 2.82  59 2.82  53 2.82  43 2.84
  21  0.749  0.999  0.253-  54 2.82  38 2.82  64 2.82  48 2.84
  22  0.746  0.996  0.746-  49 2.79  39 2.93  55 2.93  65 2.93  33 2.94
  23  0.750  0.501  0.251-  56 2.82  62 2.82  40 2.82  46 2.84
  24  0.749  0.503  0.749-  63 2.82  57 2.82  41 2.82  47 2.84
  25  0.253  0.251  0.001-  35 2.82  50 2.82  59 2.82  42 2.84
  26  0.251  0.250  0.499-  34 2.82  51 2.82  58 2.82  43 2.84
  27  0.251  0.749  1.000-  37 2.82  61 2.82  52 2.82  44 2.84
  28  0.249  0.751  0.501-  45 2.82  36 2.83  53 2.83  60 2.83
  29  0.746  0.254  0.004-  46 2.79  39 2.93  54 2.93  63 2.93  33 2.94
  30  0.749  0.251  0.497-  55 2.82  38 2.82  62 2.82  47 2.84
  31  0.749  0.747  0.001-  65 2.82  56 2.82  41 2.82  48 2.84
  32  0.750  0.749  0.499-  57 2.82  64 2.82  40 2.82  49 2.84
  33  0.875  0.125  0.875-   1 2.94  10 2.94  22 2.94  29 2.94  35 3.37  39 3.37  54 3.37  55 3.37
                            63 3.37  65 3.37
  34  0.127  0.125  0.375-  17 2.82  26 2.82   2 2.82   9 2.82
  35  0.133  0.125  0.875-  18 2.82  25 2.82  10 2.93   1 2.93  33 3.37
  36  0.126  0.625  0.375-   4 2.82  11 2.82  19 2.83  28 2.83
  37  0.127  0.625  0.875-  20 2.82  27 2.82   3 2.82  12 2.82
  38  0.623  0.125  0.375-  13 2.82   6 2.82  21 2.82  30 2.82
  39  0.617  0.125  0.875-  14 2.82   5 2.82  22 2.93  29 2.93  33 3.37
  40  0.624  0.625  0.375-  23 2.82  32 2.82   8 2.83  15 2.83
  41  0.623  0.625  0.875-   7 2.82  16 2.82  31 2.82  24 2.82
  42  0.125  0.375  0.125-  19 2.82   9 2.84  25 2.84   3 2.84
  43  0.127  0.377  0.623-  10 2.79   4 2.84  26 2.84  20 2.84
  44  0.127  0.873  0.127-   1 2.79  11 2.84  17 2.84  27 2.84
  45  0.125  0.875  0.625-  28 2.82  18 2.84   2 2.84  12 2.84
  46  0.623  0.377  0.127-  29 2.79  13 2.84  23 2.84   7 2.84
  47  0.625  0.375  0.625-   8 2.82  14 2.84  24 2.84  30 2.84
  48  0.625  0.875  0.125-  15 2.82  21 2.84   5 2.84  31 2.84
  49  0.623  0.873  0.623-  22 2.79  32 2.84   6 2.84  16 2.84
  50  0.375  0.125  0.127-  17 2.82  13 2.82   5 2.82  25 2.82
  51  0.375  0.125  0.623-   6 2.82  26 2.82  18 2.82  14 2.82
  52  0.375  0.625  0.126-   7 2.82  27 2.82  19 2.83  15 2.83
  53  0.375  0.625  0.624-  16 2.82  20 2.82   8 2.83  28 2.83
  54  0.875  0.125  0.133-   9 2.82  21 2.82   1 2.93  29 2.93  33 3.37
  55  0.875  0.125  0.617-  30 2.82   2 2.82  22 2.93  10 2.93  33 3.37
  56  0.875  0.625  0.127-  11 2.82  23 2.82   3 2.82  31 2.82
  57  0.875  0.625  0.623-   4 2.82  32 2.82  12 2.82  24 2.82
  58  0.375  0.376  0.375-  26 2.82  13 2.82  19 2.83   8 2.83
  59  0.375  0.377  0.875-   7 2.82  20 2.82  14 2.82  25 2.82
  60  0.375  0.874  0.375-   6 2.82  17 2.82  15 2.83  28 2.83
  61  0.375  0.873  0.875-  16 2.82  27 2.82   5 2.82  18 2.82
  62  0.875  0.377  0.375-   4 2.82  23 2.82   9 2.82  30 2.82
  63  0.875  0.383  0.875-  24 2.82   3 2.82  10 2.93  29 2.93  33 3.37
  64  0.875  0.873  0.375-  11 2.82  32 2.82   2 2.82  21 2.82
  65  0.875  0.867  0.875-  12 2.82  31 2.82   1 2.93  22 2.93  33 3.37


IMPORTANT INFORMATION: All symmetrisations will be switched off!
NOSYMM: (Re-)initialisation of all symmetry stuff for point group C_1.



 KPOINTS: Automatically generated mesh            
  k-points in reciprocal lattice
Space group operators:
 irot       det(A)        alpha          n_x          n_y          n_z        tau_x        tau_y        tau_z
    1     1.000000     0.000000     1.000000     0.000000     0.000000     0.000000     0.000000     0.000000

 ----------------------------------------------------------------------------- 
|                                                                             |
|           W    W    AA    RRRRR   N    N  II  N    N   GGGG   !!!           |
|           W    W   A  A   R    R  NN   N  II  NN   N  G    G  !!!           |
|           W    W  A    A  R    R  N N  N  II  N N  N  G       !!!           |
|           W WW W  AAAAAA  RRRRR   N  N N  II  N  N N  G  GGG   !            |
|           WW  WW  A    A  R   R   N   NN  II  N   NN  G    G                |
|           W    W  A    A  R    R  N    N  II  N    N   GGGG   !!!           |
|                                                                             |
|      Your generating k-point grid is not commensurate to the symmetry       |
|      of the lattice.  This can cause   slow convergence with respect        |
|      to k-points for HF type calculations                                   |
|      suggested SOLUTIONS:                                                   |
|       ) if not already the case, use automatic k-point generation           |
|       ) shift your grid to Gamma (G) (e.g. required for hex or fcc lattice) |
|                                                                             |
 ----------------------------------------------------------------------------- 

 
 Subroutine IBZKPT_HF returns following result:
 ==============================================
 
 Found      8 k-points in 1st BZ
 the following      8 k-points will be used (e.g. in the exchange kernel)
 Following reciprocal coordinates:   # in IRBZ
  0.000000  0.000000  0.000000    0.12500000   1 t-inv F
  0.500000  0.000000  0.000000    0.12500000   2 t-inv F
  0.000000  0.500000  0.000000    0.12500000   3 t-inv F
  0.500000  0.500000  0.000000    0.12500000   4 t-inv F
  0.000000  0.000000  0.500000    0.12500000   5 t-inv F
  0.500000  0.000000  0.500000    0.12500000   6 t-inv F
  0.000000  0.500000  0.500000    0.12500000   7 t-inv F
  0.500000  0.500000  0.500000    0.12500000   8 t-inv F


--------------------------------------------------------------------------------------------------------




 Dimension of arrays:
   k-points           NKPTS =      8   k-points in BZ     NKDIM =      8   number of bands    NBANDS=    832
   number of dos      NEDOS =   2000   number of ions     NIONS =     65
   non local maximal  LDIM  =      6   non local SUM 2l+1 LMDIM =     18
   total plane-waves  NPLWV = 884736
   max r-space proj   IRMAX =      1   max aug-charges    IRDMAX= 183854
   dimension x,y,z NGX =    96 NGY =   96 NGZ =   96
   dimension x,y,z NGXF=   192 NGYF=  192 NGZF=  192
   support grid    NGXF=   384 NGYF=  384 NGZF=  384
   ions per type =              33  32
   NGX,Y,Z   is equivalent  to a cutoff of  12.20, 12.20, 12.20 a.u.
   NGXF,Y,Z  is equivalent  to a cutoff of  24.39, 24.39, 24.39 a.u.

 SYSTEM =  unknown system                          
 POSCAR =  Cd33 Te32                               

 Startparameter for this run:
   NWRITE =      2    write-flag & timer
   PREC   = accura    normal or accurate (medium, high low for compatibility)
   ISTART =      0    job   : 0-new  1-cont  2-samecut
   ICHARG =      1    charge: 1-file 2-atom 10-const
   ISPIN  =      1    spin polarized calculation?
   LNONCOLLINEAR =      T non collinear calculations
   LSORBIT =      T    spin-orbit coupling
   INIWAV =      1    electr: 0-lowe 1-rand  2-diag
   LASPH  =      T    aspherical Exc in radial PAW
   METAGGA=      F    non-selfconsistent MetaGGA calc.

 Electronic Relaxation 1
   ENCUT  =  450.0 eV  33.07 Ry    5.75 a.u.  22.64 22.64 22.64*2*pi/ulx,y,z
   ENINI  =  450.0     initial cutoff
   ENAUG  =  456.1 eV  augmentation charge cutoff
   NELM   =      6;   NELMIN=  2; NELMDL= -5     # of ELM steps 
   EDIFF  = 0.1E-05   stopping-criterion for ELM
   LREAL  =      F    real-space projection
   NLSPLINE    = F    spline interpolate recip. space projectors
   LCOMPAT=      F    compatible to vasp.4.4
   GGA_COMPAT  = T    GGA compatible to vasp.4.4-vasp.4.6
   LMAXPAW     = -100 max onsite density
   LMAXMIX     =    2 max onsite mixed and CHGCAR
   VOSKOWN=      0    Vosko Wilk Nusair interpolation
   ROPT   =    0.00000   0.00000
 Ionic relaxation
   EDIFFG = -.1E-01   stopping-criterion for IOM
   NSW    =      0    number of steps for IOM
   NBLOCK =      1;   KBLOCK =      1    inner block; outer block 
   IBRION =     -1    ionic relax: 0-MD 1-quasi-New 2-CG
   NFREE  =      0    steps in history (QN), initial steepest desc. (CG)
   ISIF   =      2    stress and relaxation
   IWAVPR =     10    prediction:  0-non 1-charg 2-wave 3-comb
   ISYM   =      0    0-nonsym 1-usesym 2-fastsym
   LCORR  =      T    Harris-Foulkes like correction to forces

   POTIM  = 0.5000    time-step for ionic-motion
   TEIN   =    0.0    initial temperature
   TEBEG  =    0.0;   TEEND  =   0.0 temperature during run
   SMASS  =  -3.00    Nose mass-parameter (am)
   estimated Nose-frequenzy (Omega)   =  0.10E-29 period in steps =****** mass=  -0.391E-26a.u.
   SCALEE = 1.0000    scale energy and forces
   NPACO  =    256;   APACO  = 16.0  distance and # of slots for P.C.
   PSTRESS=    0.0 pullay stress

  Mass of Ions in am
   POMASS = 112.41127.60
  Ionic Valenz
   ZVAL   =  12.00  6.00
  Atomic Wigner-Seitz radii
   RWIGS  =  -1.00 -1.00
  virtual crystal weights 
   VCA    =   1.00  1.00
   NELECT =     588.0000    total number of electrons
   NUPDOWN=      -1.0000    fix difference up-down

 DOS related values:
   EMIN   =  10.00;   EMAX   =-10.00  energy-range for DOS
   EFERMI =   0.00
   ISMEAR =     0;   SIGMA  =   0.05  broadening in eV -4-tet -1-fermi 0-gaus

 Electronic relaxation 2 (details)
   IALGO  =     58    algorithm
   LDIAG  =      T    sub-space diagonalisation (order eigenvalues)
   LSUBROT=      F    optimize rotation matrix (better conditioning)
   TURBO    =      0    0=normal 1=particle mesh
   IRESTART =      0    0=no restart 2=restart with 2 vectors
   NREBOOT  =      0    no. of reboots
   NMIN     =      0    reboot dimension
   EREF     =   0.00    reference energy to select bands
   IMIX   =      4    mixing-type and parameters
     AMIX     =   0.40;   BMIX     =  1.00
     AMIX_MAG =   1.60;   BMIX_MAG =  1.00
     AMIN     =   0.10
     WC   =   100.;   INIMIX=   1;  MIXPRE=   1;  MAXMIX= -45

 Intra band minimization:
   WEIMIN = 0.0000     energy-eigenvalue tresh-hold
   EBREAK =  0.30E-09  absolut break condition
   DEPER  =   0.30     relativ break condition  

   TIME   =   0.40     timestep for ELM

  volume/ion in A,a.u.               =      34.48       232.69
  Fermi-wavevector in a.u.,A,eV,Ry     =   1.048017  1.980464 14.943809  1.098339
  Thomas-Fermi vector in A             =   2.182921

 Write flags
   LWAVE        =      T    write WAVECAR
   LDOWNSAMPLE  =      F    k-point downsampling of WAVECAR
   LCHARG       =      T    write CHGCAR
   LVTOT        =      F    write LOCPOT, total local potential
   LVHAR        =      T    write LOCPOT, Hartree potential only
   LELF         =      F    write electronic localiz. function (ELF)
   LORBIT       =     11    0 simple, 1 ext, 2 COOP (PROOUT), +10 PAW based schemes


 Dipole corrections
   LMONO  =      F    monopole corrections only (constant potential shift)
   LDIPOL =      F    correct potential (dipole corrections)
   IDIPOL =      0    1-x, 2-y, 3-z, 4-all directions 
   EPSILON=  1.0000000 bulk dielectric constant

 Exchange correlation treatment:
   GGA     =    --    GGA type
   LEXCH   =     8    internal setting for exchange type
   VOSKOWN=      0    Vosko Wilk Nusair interpolation
   EXXOEP  =     0    0=HF, 1=EXX-LHF (local Hartree Fock) 2=EXX OEP
   LHFCALC =     T    Hartree Fock is set to
   LSYMGRAD=     F    symmetrize gradient (conserves proper symmetry)
   PRECFOCK=fast      Normal, Fast or Accurate (Low or Medium for compatibility)
   LRHFCALC=     F    long range Hartree Fock
   LRSCOR  =     F    long range correlation only (use DFT for short range part)
   LTHOMAS =     F    Thomas Fermi screening in HF
   LMODELHF=     F    short range full HF, long range fraction AEXX
   ENCUT4O =  -1.0   cutoff for four orbital integrals eV
   LMAXFOCK=     4    L truncation for augmentation on plane wave grid
   LMAXFOCKAE=  -1    L truncation for all-electron charge restoration on plane wave grid
   NMAXFOCKAE=   1    number of basis functions for all-electron charge restoration
   LFOCKAEDFT=     F  apply the AE augmentation even for DFT
   NKREDX  =     1    reduce k-point grid by
   NKREDY  =     1    reduce k-point grid by
   NKREDZ  =     1    reduce k-point grid by
   SHIFTRED=     F    shift reduced grid of Gamma
   HFKIDENT=     F    idential grid for each k-point
   ODDONLY =     F    use only odd q-grid points
   EVENONLY=     F    use only even q-grid points
   HFALPHA =   -1.0000 decay constant for conv. correction
   MCALPHA =    0.0000 extent of test-charge in conv. correction in multipole expansion
   AEXX    =    0.2500 exact exchange contribution
   HFSCREEN=    0.2000 screening length (either q_TF or 0.3 A-1)
   HFSCREENC=   0.2000 screening length for correlation (either q_TF or 0.3 A-1)
   HFRCUT  =    0.0000 spherical cutoff for potential kernel
   ALDAX   =    0.7500 LDA exchange part
   AGGAX   =    0.7500 GGA exchange part
   ALDAC   =    1.0000 LDA correlation
   AGGAC   =    1.0000 GGA correlation
   ENCUTFOCK=  -1.0 apply spherical cutoff to Coloumb kernel
   NBANDSGWLOW=     1    first orbital included in HF term
   NBLOCK_FOCK=    64    blocking factor in FOCK_ACC
 Linear response parameters
   LEPSILON=     F    determine dielectric tensor
   LRPA    =     F    only Hartree local field effects (RPA)
   LNABLA  =     F    use nabla operator in PAW spheres
   LVEL    =     F    velocity operator in full k-point grid
   LINTERFAST=   F  fast interpolation
   KINTER  =     0    interpolate to denser k-point grid
   CSHIFT  =0.1000    complex shift for real part using Kramers Kronig
   OMEGAMAX=  -1.0    maximum frequency
   DEG_THRESHOLD= 0.2000000E-02 threshold for treating states as degnerate
   RTIME   =   -0.100 relaxation time in fs
  (WPLASMAI=    0.000 imaginary part of plasma frequency in eV, 0.658/RTIME)
   DFIELD  = 0.0000000 0.0000000 0.0000000 field for delta impulse in time

 Orbital magnetization related:
   ORBITALMAG=     F  switch on orbital magnetization
   LCHIMAG   =     F  perturbation theory with respect to B field
   DQ        =  0.001000  dq finite difference perturbation B field
   LLRAUG    =     F  two centre corrections for induced B field



--------------------------------------------------------------------------------------------------------


 Static calculation
 charge density and potential will be updated during run
 non collinear spin polarized calculation
 Conjugate gradient for all bands (Freysoldt, et al. PRB 79, 241103 (2009))
 preconditioned conjugated gradient                                        
 perform sub-space diagonalisation
    before iterative eigenvector-optimisation
 modified Broyden-mixing scheme, WC =      100.0
 initial mixing is a Kerker type mixing with AMIX =  0.4000 and BMIX =      1.0000
 Hartree-type preconditioning will be used
 using additional bands          538
 reciprocal scheme for non local part
 use partial core corrections
 no Harris-corrections to forces 
 use gradient corrections 
 use of overlap-Matrix (Vanderbilt PP)
 Gauss-broadening in eV      SIGMA  =   0.05


--------------------------------------------------------------------------------------------------------


  energy-cutoff  :      450.00
  volume of cell :     2241.29
      direct lattice vectors                 reciprocal lattice vectors
    13.086768000  0.000000000  0.000000000     0.076413061  0.000000000  0.000000000
     0.000000000 13.086768000  0.000000000     0.000000000  0.076413061  0.000000000
     0.000000000  0.000000000 13.086768000     0.000000000  0.000000000  0.076413061

  length of vectors
    13.086768000 13.086768000 13.086768000     0.076413061  0.076413061  0.076413061



 k-points in units of 2pi/SCALE and weight: Automatically generated mesh            
   0.00000000  0.00000000  0.00000000       0.125
   0.03820653  0.00000000  0.00000000       0.125
   0.00000000  0.03820653  0.00000000       0.125
   0.03820653  0.03820653  0.00000000       0.125
   0.00000000  0.00000000  0.03820653       0.125
   0.03820653  0.00000000  0.03820653       0.125
   0.00000000  0.03820653  0.03820653       0.125
   0.03820653  0.03820653  0.03820653       0.125

 k-points in reciprocal lattice and weights: Automatically generated mesh            
   0.00000000  0.00000000  0.00000000       0.125
   0.50000000  0.00000000  0.00000000       0.125
   0.00000000  0.50000000  0.00000000       0.125
   0.50000000  0.50000000  0.00000000       0.125
   0.00000000  0.00000000  0.50000000       0.125
   0.50000000  0.00000000  0.50000000       0.125
   0.00000000  0.50000000  0.50000000       0.125
   0.50000000  0.50000000  0.50000000       0.125

 position of ions in fractional coordinates (direct lattice) 
   0.00448500  0.99551500  0.00448500
   0.00124700  0.99875300  0.49695900
   0.00124700  0.50304100  0.00124700
   0.99962500  0.50121800  0.49878200
   0.49695900  0.99875300  0.00124700
   0.49878100  0.00037500  0.49878100
   0.49878100  0.50121900  0.99962500
   0.50052800  0.49947200  0.50052800
   0.00124700  0.25124700  0.25304000
   0.00448600  0.25448500  0.74551500
   0.99962500  0.74878200  0.25121800
   0.00124700  0.74695900  0.74875300
   0.49878200  0.24962500  0.25121900
   0.49696000  0.25124700  0.74875300
   0.50052800  0.75052800  0.24947200
   0.49878100  0.74878100  0.75037500
   0.25121900  0.00037500  0.25121900
   0.25304000  0.99875300  0.74875300
   0.24947200  0.49947200  0.24947200
   0.25121900  0.50121900  0.75037500
   0.74875300  0.99875300  0.25304000
   0.74551400  0.99551500  0.74551500
   0.75037500  0.50121900  0.25121900
   0.74875300  0.50304000  0.74875300
   0.25304000  0.25124700  0.00124700
   0.25121900  0.24962500  0.49878100
   0.25121900  0.74878100  0.99962500
   0.24947200  0.75052800  0.50052800
   0.74551400  0.25448500  0.00448500
   0.74875300  0.25124700  0.49696000
   0.74875300  0.74695900  0.00124700
   0.75037500  0.74878200  0.49878200
   0.87500000  0.12500000  0.87500000
   0.12665600  0.12500000  0.37500000
   0.13277900  0.12500000  0.87500000
   0.12589200  0.62500000  0.37500000
   0.12665600  0.62500000  0.87500000
   0.62334400  0.12500000  0.37500000
   0.61722100  0.12500000  0.87500000
   0.62410800  0.62500000  0.37500000
   0.62334400  0.62500000  0.87500000
   0.12484800  0.37484800  0.12484800
   0.12748800  0.37748800  0.62251200
   0.12748800  0.87251200  0.12748800
   0.12484800  0.87515200  0.62515200
   0.62251200  0.37748800  0.12748800
   0.62515200  0.37484800  0.62515200
   0.62515200  0.87515200  0.12484800
   0.62251200  0.87251200  0.62251200
   0.37500000  0.12500000  0.12665600
   0.37500000  0.12500000  0.62334400
   0.37500000  0.62500000  0.12589200
   0.37500000  0.62500000  0.62410800
   0.87500000  0.12500000  0.13277900
   0.87500000  0.12500000  0.61722100
   0.87500000  0.62500000  0.12665600
   0.87500000  0.62500000  0.62334400
   0.37500000  0.37589200  0.37500000
   0.37500000  0.37665600  0.87500000
   0.37500000  0.87410800  0.37500000
   0.37500000  0.87334400  0.87500000
   0.87500000  0.37665600  0.37500000
   0.87500000  0.38277900  0.87500000
   0.87500000  0.87334400  0.37500000
   0.87500000  0.86722100  0.87500000

 position of ions in cartesian coordinates  (Angst):
   0.05869415 13.02807385  0.05869415
   0.01631920 13.07044880  6.50358714
   0.01631920  6.58318086  0.01631920
  13.08186046  6.55932368  6.52744432
   6.50358714 13.07044880  0.01631920
   6.52743123  0.00490754  6.52743123
   6.52743123  6.55933677 13.08186046
   6.55029381  6.53647419  6.55029381
   0.01631920  3.28801120  3.31147577
   0.05870724  3.33038615  9.75638185
  13.08186046  9.79913632  3.28763168
   0.01631920  9.77527914  9.79875680
   6.52744432  3.26678446  3.28764477
   6.50360023  3.28801120  9.79875680
   6.55029381  9.82198581  3.26478219
   6.52743123  9.79912323  9.81998354
   3.28764477  0.00490754  3.28764477
   3.31147577 13.07044880  9.79875680
   3.26478219  6.53647419  3.26478219
   3.28764477  6.55933677  9.81998354
   9.79875680 13.07044880  3.31147577
   9.75636876 13.02807385  9.75638185
   9.81998354  6.55933677  3.28764477
   9.79875680  6.58316777  9.79875680
   3.31147577  3.28801120  0.01631920
   3.28764477  3.26678446  6.52743123
   3.28764477  9.79912323 13.08186046
   3.26478219  9.82198581  6.55029381
   9.75636876  3.33038615  0.05869415
   9.79875680  3.28801120  6.50360023
   9.79875680  9.77527914  0.01631920
   9.81998354  9.79913632  6.52744432
  11.45092200  1.63584600 11.45092200
   1.65751769  1.63584600  4.90753800
   1.73764797  1.63584600 11.45092200
   1.64751940  8.17923000  4.90753800
   1.65751769  8.17923000 11.45092200
   8.15755831  1.63584600  4.90753800
   8.07742803  1.63584600 11.45092200
   8.16755660  8.17923000  4.90753800
   8.15755831  8.17923000 11.45092200
   1.63385681  4.90554881  1.63385681
   1.66840588  4.94009788  8.14667012
   1.66840588 11.41836212  1.66840588
   1.63385681 11.45291119  8.18121919
   8.14667012  4.94009788  1.66840588
   8.18121919  4.90554881  8.18121919
   8.18121919 11.45291119  1.63385681
   8.14667012 11.41836212  8.14667012
   4.90753800  1.63584600  1.65751769
   4.90753800  1.63584600  8.15755831
   4.90753800  8.17923000  1.64751940
   4.90753800  8.17923000  8.16755660
  11.45092200  1.63584600  1.73764797
  11.45092200  1.63584600  8.07742803
  11.45092200  8.17923000  1.65751769
  11.45092200  8.17923000  8.15755831
   4.90753800  4.91921140  4.90753800
   4.90753800  4.92920969 11.45092200
   4.90753800 11.43924860  4.90753800
   4.90753800 11.42925031 11.45092200
  11.45092200  4.92920969  4.90753800
  11.45092200  5.00933997 11.45092200
  11.45092200 11.42925031  4.90753800
  11.45092200 11.34912003 11.45092200

 Euler angles ALPHA=     0.0000000  BETA=     0.0000000

 transformation matrix from SAXIS to cartesian coordinates
 ---------------------------------------------------------
     1.0000000 m_x    -0.0000000 m_y     0.0000000 m_z
     0.0000000 m_x     1.0000000 m_y     0.0000000 m_z
    -0.0000000 m_x     0.0000000 m_y     1.0000000 m_z

 transformation matrix from cartesian coordinates to SAXIS
 ---------------------------------------------------------
     1.0000000 m_x     0.0000000 m_y    -0.0000000 m_z
    -0.0000000 m_x     1.0000000 m_y     0.0000000 m_z
     0.0000000 m_x     0.0000000 m_y     1.0000000 m_z




--------------------------------------------------------------------------------------------------------


 k-point  1 :   0.0000 0.0000 0.0000  plane waves:   97002
 k-point  2 :   0.5000 0.0000 0.0000  plane waves:   97356
 k-point  3 :   0.0000 0.5000 0.0000  plane waves:   97356
 k-point  4 :   0.5000 0.5000 0.0000  plane waves:   96960
 k-point  5 :   0.0000 0.0000 0.5000  plane waves:   97356
 k-point  6 :   0.5000 0.0000 0.5000  plane waves:   96960
 k-point  7 :   0.0000 0.5000 0.5000  plane waves:   96960
 k-point  8 :   0.5000 0.5000 0.5000  plane waves:   96832

 maximum and minimum number of plane-waves per node :      3116     2976

 maximum number of plane-waves:     97356
 maximum index in each direction: 
   IXMAX=   22   IYMAX=   22   IZMAX=   22
   IXMIN=  -23   IYMIN=  -23   IZMIN=  -23


 parallel 3D FFT for wavefunctions:
    minimum data exchange during FFTs selected (reduces bandwidth)
 parallel 3D FFT for charge:
    minimum data exchange during FFTs selected (reduces bandwidth)


 FFT grid for exact exchange (Hartree Fock) 
  NGX = 48; NGY = 48; NGZ = 48


 Radii for the augmentation spheres in the non-local exchange
 for species   1 augmentation radius   1.444 (default was   1.070)
       energy cutoff for augmentation   1800.0
 for species   2 augmentation radius   1.606 (default was   1.190)
       energy cutoff for augmentation   1800.0

 real space projection operators:
  total allocation   :       9375.20 KBytes
  max/ min on nodes  :        432.62        141.21

 Maximum index for augmentation-charges in exchange           97
  SETUP_FOCK is finished

 total amount of memory used by VASP MPI-rank0    71825. kBytes
=======================================================================

   base      :      30000. kBytes
   nonl-proj :       5136. kBytes
   fftplans  :       6592. kBytes
   grid      :      12386. kBytes
   one-center:        186. kBytes
   HF        :        129. kBytes
   nonlr-proj:       1424. kBytes
   wavefun   :      15972. kBytes

     INWAV:  cpu time    0.0000: real time    0.0000
 Broyden mixing: mesh for mixing (old mesh)
   NGX = 45   NGY = 45   NGZ = 45
  (NGX  =192   NGY  =192   NGZ  =192)
  gives a total of  91125 points

 initial charge density was supplied:
 charge density of overlapping atoms calculated
 number of electron     588.0000000 magnetization      65.0000000     65.0000000     65.0000000
 keeping initial charge density in first step


--------------------------------------------------------------------------------------------------------


 Maximum index for augmentation-charges         3093 (set IRDMAX)


--------------------------------------------------------------------------------------------------------


 First call to EWALD:  gamma=   0.135
 Maximum number of real-space cells 3x 3x 3
 Maximum number of reciprocal cells 3x 3x 3

    FEWALD:  cpu time    0.0135: real time    0.0135


--------------------------------------- Iteration      1(   1)  ---------------------------------------


    POTLOK:  cpu time    2.0968: real time    2.0994
    SETDIJ:  cpu time    1.9732: real time    1.9742
    TRIAL :  cpu time   87.9625: real time   87.9946
    CORREC:  cpu time    0.0021: real time    0.0021
    --------------------------------------------
      LOOP:  cpu time   92.1296: real time   92.1653

 eigenvalue-minimisations  : 13312
 total energy-change (2. order) : 0.4515706E+04  (-0.2571820E+05)
 number of electron     588.0000000 magnetization      65.0000000     65.0000000     65.0000000
 augmentation part      588.0000000 magnetization      65.0000000     65.0000000     65.0000000

 Free energy of the ion-electron system (eV)
  ---------------------------------------------------
  alpha Z        PSCENC =      1642.45118531
  Ewald energy   TEWEN  =    -33940.17512420
  -Hartree energ DENC   =    -17077.89199325
  -exchange      EXHF   =         0.00000000
  -V(xc)+E(xc)   XCENC  =      -617.56595420
  PAW double counting   =     46020.13618676   -43994.38451620
  entropy T*S    EENTRO =        -0.03377039
  eigenvalues    EBANDS =      2733.74447254
  atomic energy  EATOM  =     49749.42546356
  ---------------------------------------------------
  free energy    TOTEN  =      4515.70594994 eV

  energy without entropy =     4515.73972033  energy(sigma->0) =     4515.72283513
  exchange ACFDT corr.  =         0.00000000  see jH, gK, PRB 81, 115126


--------------------------------------------------------------------------------------------------------




--------------------------------------- Iteration      1(   2)  ---------------------------------------


    TRIAL :  cpu time    7.3556: real time    7.3585
    CORREC:  cpu time    0.0019: real time    0.0019
    --------------------------------------------
      LOOP:  cpu time    7.3737: real time    7.4042

 eigenvalue-minimisations  : 14336
 total energy-change (2. order) :-0.3364875E+04  (-0.3214034E+04)
 number of electron     588.0000000 magnetization      65.0000000     65.0000000     65.0000000
 augmentation part      588.0000000 magnetization      65.0000000     65.0000000     65.0000000

 Free energy of the ion-electron system (eV)
  ---------------------------------------------------
  alpha Z        PSCENC =      1642.45118531
  Ewald energy   TEWEN  =    -33940.17512420
  -Hartree energ DENC   =    -17077.89199325
  -exchange      EXHF   =         0.00000000
  -V(xc)+E(xc)   XCENC  =      -617.56595420
  PAW double counting   =     46020.13618676   -43994.38451620
  entropy T*S    EENTRO =        -0.01015488
  eigenvalues    EBANDS =      -631.15383150
  atomic energy  EATOM  =     49749.42546356
  ---------------------------------------------------
  free energy    TOTEN  =      1150.83126140 eV

  energy without entropy =     1150.84141628  energy(sigma->0) =     1150.83633884
  exchange ACFDT corr.  =         0.00000000  see jH, gK, PRB 81, 115126


--------------------------------------------------------------------------------------------------------




--------------------------------------- Iteration      1(   3)  ---------------------------------------


    TRIAL :  cpu time    8.1562: real time    8.1590
    CORREC:  cpu time    0.0020: real time    0.0020
    --------------------------------------------
      LOOP:  cpu time    8.1746: real time    8.2030

 eigenvalue-minimisations  : 15360
 total energy-change (2. order) :-0.2048540E+03  (-0.2026542E+03)
 number of electron     588.0000000 magnetization      65.0000000     65.0000000     65.0000000
 augmentation part      588.0000000 magnetization      65.0000000     65.0000000     65.0000000

 Free energy of the ion-electron system (eV)
  ---------------------------------------------------
  alpha Z        PSCENC =      1642.45118531
  Ewald energy   TEWEN  =    -33940.17512420
  -Hartree energ DENC   =    -17077.89199325
  -exchange      EXHF   =         0.00000000
  -V(xc)+E(xc)   XCENC  =      -617.56595420
  PAW double counting   =     46020.13618676   -43994.38451620
  entropy T*S    EENTRO =        -0.01245141
  eigenvalues    EBANDS =      -836.00557079
  atomic energy  EATOM  =     49749.42546356
  ---------------------------------------------------
  free energy    TOTEN  =       945.97722559 eV

  energy without entropy =      945.98967699  energy(sigma->0) =      945.98345129
  exchange ACFDT corr.  =         0.00000000  see jH, gK, PRB 81, 115126


--------------------------------------------------------------------------------------------------------




--------------------------------------- Iteration      1(   4)  ---------------------------------------


    TRIAL :  cpu time    8.1586: real time    8.1615
    CORREC:  cpu time    0.0019: real time    0.0019
    --------------------------------------------
      LOOP:  cpu time    8.1812: real time    8.2059

 eigenvalue-minimisations  : 15424
 total energy-change (2. order) :-0.4309863E+01  (-0.4303647E+01)
 number of electron     588.0000000 magnetization      65.0000000     65.0000000     65.0000000
 augmentation part      588.0000000 magnetization      65.0000000     65.0000000     65.0000000

 Free energy of the ion-electron system (eV)
  ---------------------------------------------------
  alpha Z        PSCENC =      1642.45118531
  Ewald energy   TEWEN  =    -33940.17512420
  -Hartree energ DENC   =    -17077.89199325
  -exchange      EXHF   =         0.00000000
  -V(xc)+E(xc)   XCENC  =      -617.56595420
  PAW double counting   =     46020.13618676   -43994.38451620
  entropy T*S    EENTRO =        -0.01277932
  eigenvalues    EBANDS =      -840.31510619
  atomic energy  EATOM  =     49749.42546356
  ---------------------------------------------------
  free energy    TOTEN  =       941.66736228 eV

  energy without entropy =      941.68014159  energy(sigma->0) =      941.67375193
  exchange ACFDT corr.  =         0.00000000  see jH, gK, PRB 81, 115126


--------------------------------------------------------------------------------------------------------




--------------------------------------- Iteration      1(   5)  ---------------------------------------


    TRIAL :  cpu time    8.1678: real time    8.1709
    CORREC:  cpu time    0.0026: real time    0.0026
    CHARGE:  cpu time    0.6514: real time    0.6522
    --------------------------------------------
      LOOP:  cpu time    8.8346: real time    8.8715

 eigenvalue-minimisations  : 15232
 total energy-change (2. order) :-0.7685778E-01  (-0.7669838E-01)
 number of electron     588.0000006 magnetization       0.6809913      0.6809841      0.6809911
 augmentation part      145.5208399 magnetization       0.5827001      0.5827277      0.5826848

 Free energy of the ion-electron system (eV)
  ---------------------------------------------------
  alpha Z        PSCENC =      1642.45118531
  Ewald energy   TEWEN  =    -33940.17512420
  -Hartree energ DENC   =    -17077.89199325
  -exchange      EXHF   =         0.00000000
  -V(xc)+E(xc)   XCENC  =      -617.56595420
  PAW double counting   =     46020.13618676   -43994.38451620
  entropy T*S    EENTRO =        -0.01278129
  eigenvalues    EBANDS =      -840.39196199
  atomic energy  EATOM  =     49749.42546356
  ---------------------------------------------------
  free energy    TOTEN  =       941.59050450 eV

  energy without entropy =      941.60328579  energy(sigma->0) =      941.59689515
  exchange ACFDT corr.  =         0.00000000  see jH, gK, PRB 81, 115126


--------------------------------------------------------------------------------------------------------




--------------------------------------- Iteration      1(   6)  ---------------------------------------


    POTLOK:  cpu time    1.9836: real time    1.9839
    SETDIJ:  cpu time    2.4730: real time    2.4734
    TRIAL :  cpu time  262.5617: real time  262.6809
    CORREC:  cpu time  261.8993: real time  262.0157
    EDDIAG:  cpu time  257.1273: real time  257.2421
    CHARGE:  cpu time    0.6458: real time    0.6460
    --------------------------------------------
      LOOP:  cpu time  786.7051: real time  787.0745

 eigenvalue-minimisations  :     0
 total energy-change (2. order) :-0.5184948E+04  (-0.4641340E+11)
 number of electron             NaN magnetization             NaN            NaN            NaN
 augmentation part              NaN magnetization             NaN            NaN            NaN

 Free energy of the ion-electron system (eV)
  ---------------------------------------------------
  alpha Z        PSCENC =      1642.45118531
  Ewald energy   TEWEN  =    -33940.17512420
  -Hartree energ DENC   =    -15675.17573907
  -exchange      EXHF   =                NaN
  -V(xc)+E(xc)   XCENC  =      -655.55092720
  PAW double counting   =    120034.81806618  -117946.43878441
  entropy T*S    EENTRO =        -0.01430028
  eigenvalues    EBANDS =    -12652.56242570
  atomic energy  EATOM  =     49749.42546356
  ---------------------------------------------------
  free energy    TOTEN  =     -4243.35788175 eV

  energy without entropy =    -4243.34358147  energy(sigma->0) =    -4243.35073161
  exchange ACFDT corr.  =        -0.01688941  see jH, gK, PRB 81, 115126


--------------------------------------------------------------------------------------------------------


  average scaling for gradient   0.9440


 average (electrostatic) potential at core
  the test charge radii are     1.0698  1.1897
  (the norm of the test charge is              1.0000)
       1 -33.4902       2 -33.3040       3 -32.7118       4 -35.1173       5 -31.0277
       6 -31.8475       7 -31.9232       8 -32.3812       9 -34.4205      10 -31.3198
      11 -34.1871      12 -34.5482      13 -31.8720      14 -30.9685      15 -32.4242
      16 -31.9330      17 -32.5517      18 -31.5548      19 -33.4826      20 -32.8050
      21 -31.4298      22 -29.6717      23 -32.5971      24 -31.6834      25 -31.9025
      26 -32.5735      27 -32.8644      28 -33.3213      29 -29.7829      30 -31.5795
      31 -31.6315      32 -32.4640      33 -26.3584      34 -89.6294      35 -87.3636
      36 -90.9959      37 -90.2580      38 -87.8084      39 -85.9395      40 -88.8689
      41 -88.0078      42 -90.3515      43 -89.9602      44 -90.0285      45 -89.6917
      46 -88.1188      47 -88.0172      48 -87.9033      49 -88.0614      50 -88.1909
      51 -87.9620      52 -88.8978      53 -88.9109      54 -87.4774      55 -87.4181
      56 -89.9215      57 -89.9651      58 -88.8895      59 -87.9797      60 -88.7838
      61 -88.1524      62 -89.9396      63 -87.7237      64 -89.5521      65 -87.5071



 E-fermi :   5.4609     XC(G=0):  -7.3038     alpha+bet : -7.2837


 k-point     1 :       0.0000    0.0000    0.0000
  band No.  band energies     occupation 
      1      -0.8153      1.00000
      2      -0.8153      1.00000
      3      -0.8153      1.00000
      4      -0.8153      1.00000
      5      -0.8153      1.00000
      6      -0.8153      1.00000
      7      -0.8153      1.00000
      8      -0.8153      1.00000
      9      -0.8153      1.00000
     10      -0.8153      1.00000
     11      -0.8153      1.00000
     12      -0.8153      1.00000
     13      -0.8153      1.00000
     14      -0.8153      1.00000
     15      -0.8153      1.00000
     16      -0.8153      1.00000
     17      -0.8153      1.00000
     18      -0.8153      1.00000
     19      -0.8153      1.00000
     20      -0.8153      1.00000
     21      -0.8153      1.00000
     22      -0.8153      1.00000
     23      -0.8153      1.00000
     24      -0.8153      1.00000
     25      -0.8153      1.00000
     26      -0.8153      1.00000
     27      -0.8153      1.00000
     28      -0.8153      1.00000
     29      -0.8153      1.00000
     30      -0.8153      1.00000
     31      -0.8153      1.00000
     32      -0.8153      1.00000
     33      -0.8153      1.00000
     34      -0.8153      1.00000
     35      -0.8153      1.00000
     36      -0.8153      1.00000
     37      -0.8153      1.00000
     38      -0.8153      1.00000
     39      -0.8153      1.00000
     40      -0.8153      1.00000
     41      -0.8153      1.00000
     42      -0.8153      1.00000
     43      -0.8153      1.00000
     44      -0.8153      1.00000
     45      -0.8153      1.00000
     46      -0.8153      1.00000
     47      -0.8153      1.00000
     48      -0.8153      1.00000
     49      -0.8153      1.00000
     50      -0.8153      1.00000
     51      -0.8153      1.00000
     52      -0.8153      1.00000
     53      -0.8153      1.00000
     54      -0.8153      1.00000
     55      -0.8153      1.00000
     56      -0.8153      1.00000
     57      -0.8153      1.00000
     58      -0.8153      1.00000
     59      -0.8153      1.00000
     60      -0.8153      1.00000
     61      -0.8153      1.00000
     62      -0.8153      1.00000
     63      -0.8153      1.00000
     64      -0.8153      1.00000
     65      -0.8153      1.00000
     66      -0.8153      1.00000
     67      -0.8153      1.00000
     68      -0.8153      1.00000
     69      -0.8153      1.00000
     70      -0.8153      1.00000
     71      -0.8153      1.00000
     72      -0.8153      1.00000
     73      -0.8153      1.00000
     74      -0.8153      1.00000
     75      -0.8153      1.00000
     76      -0.8153      1.00000
     77      -0.8153      1.00000
     78      -0.8153      1.00000
     79      -0.8153      1.00000
     80      -0.8153      1.00000
     81      -0.8153      1.00000
     82      -0.8153      1.00000
     83      -0.8153      1.00000
     84      -0.8153      1.00000
     85      -0.8153      1.00000
     86      -0.8153      1.00000
     87      -0.8153      1.00000
     88      -0.8153      1.00000
     89      -0.8153      1.00000
     90      -0.8153      1.00000
     91      -0.8153      1.00000
     92      -0.8153      1.00000
     93      -0.8153      1.00000
     94      -0.8153      1.00000
     95      -0.8153      1.00000
     96      -0.8153      1.00000
     97      -0.8153      1.00000
     98      -0.8153      1.00000
     99      -0.8153      1.00000
    100      -0.8153      1.00000
    101      -0.8153      1.00000
    102      -0.8153      1.00000
    103      -0.8153      1.00000
    104      -0.8153      1.00000
    105      -0.8153      1.00000
    106      -0.8153      1.00000
    107      -0.8153      1.00000
    108      -0.8153      1.00000
    109      -0.8153      1.00000
    110      -0.8153      1.00000
    111      -0.8153      1.00000
    112      -0.8153      1.00000
    113      -0.8153      1.00000
    114      -0.8153      1.00000
    115      -0.8153      1.00000
    116      -0.8153      1.00000
    117      -0.8153      1.00000
    118      -0.8153      1.00000
    119      -0.8153      1.00000
    120      -0.8153      1.00000
    121      -0.8153      1.00000
    122      -0.8153      1.00000
    123      -0.8153      1.00000
    124      -0.8153      1.00000
    125      -0.8153      1.00000
    126      -0.8153      1.00000
    127      -0.8153      1.00000
    128      -0.8153      1.00000
    129      -0.8153      1.00000
    130      -0.8153      1.00000
    131      -0.8153      1.00000
    132      -0.8153      1.00000
    133      -0.8153      1.00000
    134      -0.8153      1.00000
    135      -0.8153      1.00000
    136      -0.8153      1.00000
    137      -0.8153      1.00000
    138      -0.8153      1.00000
    139      -0.8153      1.00000
    140      -0.8153      1.00000
    141      -0.8153      1.00000
    142      -0.8153      1.00000
    143      -0.8153      1.00000
    144      -0.8153      1.00000
    145      -0.8153      1.00000
    146      -0.8153      1.00000
    147      -0.8153      1.00000
    148      -0.8153      1.00000
    149      -0.8153      1.00000
    150      -0.8153      1.00000
    151      -0.8153      1.00000
    152      -0.8153      1.00000
    153      -0.8153      1.00000
    154      -0.8153      1.00000
    155      -0.8153      1.00000
    156      -0.8153      1.00000
    157      -0.8153      1.00000
    158      -0.8153      1.00000
    159      -0.8153      1.00000
    160      -0.8153      1.00000
    161      -0.8153      1.00000
    162      -0.8153      1.00000
    163       6.1632      1.00000
    164       6.1632      1.00000
    165       6.1632      1.00000
    166       6.1632      1.00000
    167       6.1632      1.00000
    168       6.1632      1.00000
    169       6.1632      1.00000
    170       6.1632      1.00000
    171       6.1632      1.00000
    172       6.1632      1.00000
    173       6.1632      1.00000
    174       6.1632      1.00000
    175       6.1632      1.00000
    176       6.1632      1.00000
    177       6.1632      1.00000
    178       6.1632      1.00000
    179       6.1632      1.00000
    180       6.1632      1.00000
    181       6.1632      1.00000
    182       6.1632      1.00000
    183       6.1632      1.00000
    184       6.1632      1.00000
    185       6.1632      1.00000
    186       6.1632      1.00000
    187       6.1632      1.00000
    188       6.1632      1.00000
    189       6.1632      1.00000
    190       6.1632      1.00000
    191       6.1632      1.00000
    192       6.1632      1.00000
    193       6.1632      1.00000
    194       6.1632      1.00000
    195       6.1632      1.00000
    196       6.1632      1.00000
    197       6.1632      1.00000
    198       6.1632      1.00000
    199       6.1632      1.00000
    200       6.1632      1.00000
    201       6.1632      1.00000
    202       6.1632      1.00000
    203       6.1632      1.00000
    204       6.1632      1.00000
    205       6.1632      1.00000
    206       6.1632      1.00000
    207       6.1632      1.00000
    208       6.1632      1.00000
    209       6.1632      1.00000
    210       6.1632      1.00000
    211       6.1632      1.00000
    212       6.1632      1.00000
    213       6.1632      1.00000
    214       6.1632      1.00000
    215       6.1632      1.00000
    216       6.1632      1.00000
    217       6.1632      1.00000
    218       6.1632      1.00000
    219       6.1632      1.00000
    220       6.1632      1.00000
    221       6.1632      1.00000
    222       6.1632      1.00000
    223       6.1632      1.00000
    224       6.1632      1.00000
    225       6.1632      1.00000
    226       6.1632      1.00000
    227       6.1632      1.00000
    228       6.1632      1.00000
    229       6.1632      1.00000
    230       6.1632      1.00000
    231       6.1632      1.00000
    232       6.1632      1.00000
    233       6.1632      1.00000
    234       6.1632      1.00000
    235       6.1632      1.00000
    236       6.1632      1.00000
    237       6.1632      1.00000
    238       6.1632      1.00000
    239       6.1632      1.00000
    240       6.1632      1.00000
    241       6.1632      1.00000
    242       6.1632      1.00000
    243       6.1632      1.00000
    244       6.1632      1.00000
    245       6.1632      1.00000
    246       6.1632      1.00000
    247       6.1632      1.00000
    248       6.1632      1.00000
    249       6.1632      1.00000
    250       6.1632      1.00000
    251       6.1632      1.00000
    252       6.1632      1.00000
    253       6.1632      1.00000
    254       6.1632      1.00000
    255       6.1632      1.00000
    256       6.1632      1.00000
    257       6.1632      1.00000
    258       6.1632      1.00000
    259       6.1632      1.00000
    260       6.1632      1.00000
    261       6.1632      1.00000
    262       6.1632      1.00000
    263       6.1632      1.00000
    264       6.1632      1.00000
    265       6.1632      1.00000
    266       6.1632      1.00000
    267       6.1632      1.00000
    268       6.1632      1.00000
    269       6.1632      1.00000
    270       6.1632      1.00000
    271       6.1632      1.00000
    272       6.1632      1.00000
    273       6.1632      1.00000
    274       6.1632      1.00000
    275       6.1632      1.00000
    276       6.1632      1.00000
    277       6.1632      1.00000
    278       6.1632      1.00000
    279       6.1632      1.00000
    280       6.1632      1.00000
    281       6.1632      1.00000
    282       6.1632      1.00000
    283       6.1632      1.00000
    284       6.1632      1.00000
    285       6.1632      1.00000
    286       6.1632      1.00000
    287       6.1632      1.00000
    288       6.1632      1.00000
    289       6.1632      1.00000
    290       6.1632      1.00000
    291       6.1632      1.00000
    292       6.1632      1.00000
    293       6.1632      1.00000
    294       6.1632      1.00000
    295       6.1632      1.00000
    296       6.1632      1.00000
    297       6.1632      1.00000
    298       6.1632      1.00000
    299       6.1632      1.00000
    300       6.1632      1.00000
    301       6.1632      1.00000
    302       6.1632      1.00000
    303       6.1632      1.00000
    304       6.1632      1.00000
    305       6.1632      1.00000
    306       6.1632      1.00000
    307       6.1632      1.00000
    308       6.1632      1.00000
    309       6.1632      1.00000
    310       6.1632      1.00000
    311       6.1632      1.00000
    312       6.1632      1.00000
    313       6.1632      1.00000
    314       6.1632      1.00000
    315       6.1632      1.00000
    316       6.1632      1.00000
    317       6.1632      1.00000
    318       6.1632      1.00000
    319       6.1632      1.00000
    320       6.1632      1.00000
    321       6.1632      1.00000
    322       6.1632      1.00000
    323       6.1632      1.00000
    324       6.1632      1.00000
    325       6.1632      1.00000
    326       6.1632      1.00000
    327       6.1632      1.00000
    328       6.1632      1.00000
    329       6.1632      1.00000
    330       6.1632      1.00000
    331       6.1632      1.00000
    332       6.1632      1.00000
    333       6.1632      1.00000
    334       6.1632      1.00000
    335       6.1632      1.00000
    336       6.1632      1.00000
    337       6.1632      1.00000
    338       6.1632      1.00000
    339       6.1632      1.00000
    340       6.1632      1.00000
    341       6.1632      1.00000
    342       6.1632      1.00000
    343       6.1632      1.00000
    344       6.1632      1.00000
    345       6.1632      1.00000
    346       6.1632      1.00000
    347       6.1632      1.00000
    348       6.1632      1.00000
    349       6.1632      1.00000
    350       6.1632      1.00000
    351       6.1632      1.00000
    352       6.1632      1.00000
    353       6.1632      1.00000
    354       6.1632      1.00000
    355       6.1632      1.00000
    356       6.1632      1.00000
    357       6.1632      1.00000
    358       6.1632      1.00000
    359       6.1632      1.00000
    360       6.1632      1.00000
    361       6.1632      1.00000
    362       6.1632      1.00000
    363       6.1632      1.00000
    364       6.1632      1.00000
    365       6.1632      1.00000
    366       6.1632      1.00000
    367       6.1632      1.00000
    368       6.1632      1.00000
    369       6.1632      1.00000
    370       6.1632      1.00000
    371       6.1632      1.00000
    372       6.1632      1.00000
    373       6.1632      1.00000
    374       6.1632      1.00000
    375       6.1632      1.00000
    376       6.1632      1.00000
    377       6.1632      1.00000
    378       6.1632      1.00000
    379       6.1632      1.00000
    380       6.1632      1.00000
    381       6.1632      1.00000
    382       6.1632      1.00000
    383       6.1632      1.00000
    384       6.1632      1.00000
    385       6.1632      1.00000
    386       6.1632      1.00000
    387       6.1632      1.00000
    388       6.1632      1.00000
    389       6.1632      1.00000
    390       6.1632      1.00000
    391       6.1632      1.00000
    392       6.1632      1.00000
    393       6.1632      1.00000
    394       6.1632      1.00000
    395       6.1632      1.00000
    396       6.1632      1.00000
    397       6.1632      1.00000
    398       6.1632      1.00000
    399       6.1632      1.00000
    400       6.1632      1.00000
    401       6.1632      1.00000
    402       6.1632      1.00000
    403       6.1632      1.00000
    404       6.1632      1.00000
    405       6.1632      1.00000
    406       6.1632      1.00000
    407       6.1632      1.00000
    408       6.1632      1.00000
    409       6.1632      1.00000
    410       6.1632      1.00000
    411       6.1632      1.00000
    412       6.1632      1.00000
    413       6.1632      1.00000
    414       6.1632      1.00000
    415       6.1632      1.00000
    416       6.1632      1.00000
    417       6.1632      1.00000
    418       6.1632      1.00000
    419       6.1632      1.00000
    420       6.1632      1.00000
    421       6.1632      1.00000
    422       6.1632      1.00000
    423       6.1632      1.00000
    424       6.1632      1.00000
    425       6.1632      1.00000
    426       6.1632      1.00000
    427       6.1632      1.00000
    428       6.1632      1.00000
    429       6.1632      1.00000
    430       6.1632      1.00000
    431       6.1632      1.00000
    432       6.1632      1.00000
    433       6.1632      1.00000
    434       6.1632      1.00000
    435       6.1632      1.00000
    436       6.1632      1.00000
    437       6.1632      1.00000
    438       6.1632      1.00000
    439       6.1632      1.00000
    440       6.1632      1.00000
    441       6.1632      1.00000
    442       6.1632      1.00000
    443       6.1632      1.00000
    444       6.1632      1.00000
    445       6.1632      1.00000
    446       6.1632      1.00000
    447       6.1632      1.00000
    448       6.1632      1.00000
    449       6.1632      1.00000
    450       6.1632      1.00000
    451       6.1632      1.00000
    452       6.1632      1.00000
    453       6.1632      1.00000
    454       6.1632      1.00000
    455       6.1632      1.00000
    456       6.1632      1.00000
    457       6.1632      1.00000
    458       6.1632      1.00000
    459       6.1632      1.00000
    460       6.1632      1.00000
    461       6.1632      1.00000
    462       6.1632      1.00000
    463       6.1632      1.00000
    464       6.1632      1.00000
    465       6.1632      1.00000
    466       6.1632      1.00000
    467       6.1632      1.00000
    468       6.1632      1.00000
    469       6.1632      1.00000
    470       6.1632      1.00000
    471       6.1632      1.00000
    472       6.1632      1.00000
    473       6.1632      1.00000
    474       6.1632      1.00000
    475       6.1632      1.00000
    476       6.1632      1.00000
    477       6.1632      1.00000
    478       6.1632      1.00000
    479       6.1632      1.00000
    480       6.1632      1.00000
    481       6.1632      1.00000
    482       6.1632      1.00000
    483       6.1632      1.00000
    484       6.1632      1.00000
    485       6.1632      1.00000
    486       6.1632      1.00000
    487       6.1632      1.00000
    488       6.1632      1.00000
    489       6.1632      1.00000
    490       6.1632      1.00000
    491       6.1632      1.00000
    492       6.1632      1.00000
    493       6.1632      1.00000
    494       6.1632      1.00000
    495       6.1632      1.00000
    496       6.1632      1.00000
    497       6.1632      1.00000
    498       6.1632      1.00000
    499       6.1632      1.00000
    500       6.1632      1.00000
    501       6.1632      1.00000
    502       6.1632      1.00000
    503       6.1632      1.00000
    504       6.1632      1.00000
    505       6.1632      1.00000
    506       6.1632      1.00000
    507       6.1632      1.00000
    508       6.1632      1.00000
    509       6.1632      1.00000
    510       6.1632      1.00000
    511       6.1632      1.00000
    512       6.1632      1.00000
    513       6.1632      1.00000
    514       6.1632      1.00000
    515       6.1632      1.00000
    516       6.1632      1.00000
    517       6.1632      1.00000
    518       6.1632      1.00000
    519       6.1632      1.00000
    520       6.1632      1.00000
    521       6.1632      1.00000
    522       6.1632      1.00000
    523       6.1632      1.00000
    524       6.1632      1.00000
    525       6.1632      1.00000
    526       6.1632      1.00000
    527       6.1632      1.00000
    528       6.1632      1.00000
    529       6.1632      1.00000
    530       6.1632      1.00000
    531       6.1632      1.00000
    532       6.1632      1.00000
    533       6.1632      1.00000
    534       6.1632      1.00000
    535       6.1632      1.00000
    536       6.1632      1.00000
    537       6.1632      1.00000
    538       6.1632      1.00000
    539       6.1632      1.00000
    540       6.1632      1.00000
    541       6.1632      1.00000
    542       6.1632      1.00000
    543       6.1632      1.00000
    544       6.1632      1.00000
    545       6.1632      1.00000
    546       6.1632      1.00000
    547       6.1632      1.00000
    548       6.1632      1.00000
    549       6.1632      1.00000
    550       6.1632      1.00000
    551       6.1632      1.00000
    552       6.1632      1.00000
    553       6.1632      1.00000
    554       6.1632      1.00000
    555       6.1632      1.00000
    556       6.1632      1.00000
    557       6.1632      1.00000
    558       6.1632      1.00000
    559       6.1632      1.00000
    560       6.1632      1.00000
    561       6.1632      1.00000
    562       6.1632      1.00000
    563       6.1632      1.00000
    564       6.1632      1.00000
    565       6.1632      1.00000
    566       6.1632      1.00000
    567       6.1632      1.00000
    568       6.1632      1.00000
    569       6.1632      1.00000
    570       6.1632      1.00000
    571       6.1632      1.00000
    572       6.1632      1.00000
    573       6.1632      1.00000
    574       6.1632      1.00000
    575       6.1632      1.00000
    576       6.1632      1.00000
    577       6.1632      1.00000
    578       6.1632      1.00000
    579       6.1632      1.00000
    580       6.1632      1.00000
    581       6.1632      1.00000
    582       6.1632      1.00000
    583       6.1632      1.00000
    584       6.1632      1.00000
    585       6.1632      1.00000
    586       6.1632      1.00000
    587       6.1632      1.00000
    588       6.1632      1.00000
    589       6.1632      1.00000
    590       6.1632      1.00000
    591       6.1632      1.00000
    592       6.1632      1.00000
    593       6.1632      1.00000
    594       6.1632      1.00000
    595       4.0977      0.14999
    596       4.1314      0.00373
    597       4.1380      0.00006
    598       4.2909      0.00000
    599       4.5220      0.00000
    600       4.6054      0.00000
    601       4.7275      0.00000
    602       4.7474      0.00000
    603       4.8415      0.00000
    604       4.8622      0.00000
    605       4.9682      0.00000
    606       4.9789      0.00000
    607       5.0349      0.00000
    608       5.0516      0.00000
    609       5.0928      0.00000
    610       5.1185      0.00000
    611       5.1218      0.00000
    612       5.1558      0.00000
    613       5.1641      0.00000
    614       5.1649      0.00000
    615       5.1651      0.00000
    616       5.1708      0.00000
    617       5.1909      0.00000
    618       5.2045      0.00000
    619       5.2172      0.00000
    620       5.2196      0.00000
    621       5.2248      0.00000
    622       5.2272      0.00000
    623       5.2393      0.00000
    624       5.2563      0.00000
    625       5.2624      0.00000
    626       5.2641      0.00000
    627       5.2673      0.00000
    628       5.2758      0.00000
    629       5.2776      0.00000
    630       5.2877      0.00000
    631       5.2943      0.00000
    632       5.3016      0.00000
    633       5.3048      0.00000
    634       5.3146      0.00000
    635       5.3303      0.00000
    636       5.3478      0.00000
    637       5.3679      0.00000
    638       5.3845      0.00000
    639       5.4120      0.00000
    640       5.4121      0.00000
    641       5.4122      0.00000
    642       5.4137      0.00000
    643       5.4231      0.00000
    644       5.4233      0.00000
    645       5.4240      0.00000
    646       5.4353      0.00000
    647       5.4408      0.00000
    648       5.4446      0.00000
    649       5.4528      0.00000
    650       5.4625      0.00000
    651       5.4856      0.00000
    652       5.4902      0.00000
    653       5.5078      0.00000
    654       5.5223      0.00000
    655       5.5251      0.00000
    656       5.6024      0.00000
    657       5.6797      0.00000
    658       6.2017      0.00000
    659       6.2799      0.00000
    660       6.2913      0.00000
    661       6.4846      0.00000
    662       6.5387      0.00000
    663       6.5770      0.00000
    664       6.5836      0.00000
    665       6.7118      0.00000
    666       6.7410      0.00000
    667       6.8008      0.00000
    668       6.8075      0.00000
    669       6.8517      0.00000
    670       6.8658      0.00000
    671       6.8697      0.00000
    672       6.9067      0.00000
    673       6.9360      0.00000
    674       6.9578      0.00000
    675       6.9583      0.00000
    676       6.9688      0.00000
    677       6.9849      0.00000
    678       7.0081      0.00000
    679       7.0518      0.00000
    680       7.0576      0.00000
    681       7.0637      0.00000
    682       7.0669      0.00000
    683       7.0672      0.00000
    684       7.0739      0.00000
    685       7.0853      0.00000
    686       7.0992      0.00000
    687       7.1124      0.00000
    688       7.1400      0.00000
    689       7.1497      0.00000
    690       7.1575      0.00000
    691       7.1722      0.00000
    692       7.2001      0.00000
    693       7.2177      0.00000
    694       7.2631      0.00000
    695       7.2698      0.00000
    696       7.2891      0.00000
    697       7.2898      0.00000
    698       7.2991      0.00000
    699       7.3097      0.00000
    700       7.3166      0.00000
    701       7.3186      0.00000
    702       7.3239      0.00000
    703       7.3306      0.00000
    704       7.3332      0.00000
    705       7.3391      0.00000
    706       7.3494      0.00000
    707       7.3617      0.00000
    708       7.3870      0.00000
    709       7.4703      0.00000
    710       7.5091      0.00000
    711       7.5187      0.00000
    712       7.5275      0.00000
    713       7.5482      0.00000
    714       7.5580      0.00000
    715       7.5585      0.00000
    716       7.5624      0.00000
    717       7.5633      0.00000
    718       7.5655      0.00000
    719       7.5729      0.00000
    720       7.5733      0.00000
    721       7.5818      0.00000
    722       7.5825      0.00000
    723       7.5842      0.00000
    724       7.5920      0.00000
    725       7.5932      0.00000
    726       7.5966      0.00000
    727       7.6135      0.00000
    728       7.6181      0.00000
    729       7.6234      0.00000
    730       7.6275      0.00000
    731       7.6291      0.00000
    732       7.6399      0.00000
    733       7.6409      0.00000
    734       7.6492      0.00000
    735       7.6586      0.00000
    736       7.6593      0.00000
    737       7.6672      0.00000
    738       7.6808      0.00000
    739       7.6896      0.00000
    740       7.7179      0.00000
    741       7.7233      0.00000
    742       7.7499      0.00000
    743       7.7870      0.00000
    744       7.8125      0.00000
    745       7.8461      0.00000
    746       7.8494      0.00000
    747       7.8656      0.00000
    748       7.8795      0.00000
    749       7.8855      0.00000
    750       7.8968      0.00000
    751       7.9285      0.00000
    752       7.9312      0.00000
    753       7.9357      0.00000
    754       7.9408      0.00000
    755       7.9507      0.00000
    756       7.9600      0.00000
    757       7.9628      0.00000
    758       7.9948      0.00000
    759       8.0019      0.00000
    760       8.0050      0.00000
    761       8.0086      0.00000
    762       8.0327      0.00000
    763       8.0395      0.00000
    764       8.0607      0.00000
    765       8.0712      0.00000
    766       8.0887      0.00000
    767       8.0890      0.00000
    768       8.1155      0.00000
    769       8.1238      0.00000
    770       8.1331      0.00000
    771       8.1404      0.00000
    772       8.1748      0.00000
    773       8.1806      0.00000
    774       8.2309      0.00000
    775       8.2501      0.00000
    776       8.2625      0.00000
    777       8.2983      0.00000
    778       8.3033      0.00000
    779       8.3139      0.00000
    780       8.3209      0.00000
    781       8.3247      0.00000
    782       8.3288      0.00000
    783       8.3370      0.00000
    784       8.3404      0.00000
    785       8.3864      0.00000
    786       8.4196      0.00000
    787       8.4229      0.00000
    788       8.4340      0.00000
    789       8.4666      0.00000
    790       8.4955      0.00000
    791       8.5096      0.00000
    792       8.5495      0.00000
    793       8.5535      0.00000
    794       8.5646      0.00000
    795       8.5808      0.00000
    796       8.5878      0.00000
    797       8.6093      0.00000
    798       8.6141      0.00000
    799       8.6240      0.00000
    800       8.6285      0.00000
    801       8.6401      0.00000
    802       8.6478      0.00000
    803       8.6516      0.00000
    804       8.6542      0.00000
    805       8.6562      0.00000
    806       8.6631      0.00000
    807       8.6913      0.00000
    808       8.6985      0.00000
    809       8.6985      0.00000
    810       8.7087      0.00000
    811       8.7385      0.00000
    812       8.7423      0.00000
    813       8.7433      0.00000
    814       8.7717      0.00000
    815       8.7743      0.00000
    816       8.7780      0.00000
    817       8.7829      0.00000
    818       8.7840      0.00000
    819       8.8427      0.00000
    820       8.9052      0.00000
    821       8.9461      0.00000
    822       8.9511      0.00000
    823       8.9569      0.00000
    824       8.9609      0.00000
    825       8.9626      0.00000
    826       9.0402      0.00000
    827       9.0518      0.00000
    828       9.1775      0.00000
    829       9.1989      0.00000
    830       9.2343      0.00000
    831       9.2649      0.00000
    832       9.3272      0.00000

 k-point     2 :       0.5000    0.0000    0.0000
  band No.  band energies     occupation 
      1       2.1958      1.00000
      2       2.1958      1.00000
      3       2.1958      1.00000
      4       2.1958      1.00000
      5       2.1958      1.00000
      6       2.1958      1.00000
      7       2.1958      1.00000
      8       2.1958      1.00000
      9       2.1958      1.00000
     10       2.1958      1.00000
     11       2.1958      1.00000
     12       2.1958      1.00000
     13       2.1958      1.00000
     14       2.1958      1.00000
     15       2.1958      1.00000
     16       2.1958      1.00000
     17       2.1958      1.00000
     18       2.1958      1.00000
     19       2.1958      1.00000
     20       2.1958      1.00000
     21       2.1958      1.00000
     22       2.1958      1.00000
     23       2.1958      1.00000
     24       2.1958      1.00000
     25       2.1958      1.00000
     26       2.1958      1.00000
     27       2.1958      1.00000
     28       2.1958      1.00000
     29       2.1958      1.00000
     30       2.1958      1.00000
     31       2.1958      1.00000
     32       2.1958      1.00000
     33       2.1958      1.00000
     34       2.1958      1.00000
     35       2.1958      1.00000
     36       2.1958      1.00000
     37       2.1958      1.00000
     38       2.1958      1.00000
     39       2.1958      1.00000
     40       2.1958      1.00000
     41       2.1958      1.00000
     42       2.1958      1.00000
     43       2.1958      1.00000
     44       2.1958      1.00000
     45       2.1958      1.00000
     46       2.1958      1.00000
     47       2.1958      1.00000
     48       2.1958      1.00000
[...]
  0.062   0.000   0.071   0.000   0.036   0.000  -0.003   0.000   0.062   0.000   0.060   0.000   0.069   0.000   0.035   0.000
 -0.003  -0.000  -0.063   0.000   0.082   0.000   0.062   0.000   0.000  -0.000  -0.003  -0.000  -0.062   0.000   0.080   0.000
 -0.063  -0.000  -0.003  -0.000  -0.034  -0.000   0.071  -0.000   0.059   0.000  -0.062  -0.000  -0.003  -0.000  -0.033  -0.000
  0.066   0.000   0.076   0.000   0.039   0.000  -0.005   0.000   0.066   0.000   0.065   0.000   0.074   0.000   0.038   0.000
 -0.005  -0.000  -0.067   0.000   0.087   0.000   0.067   0.000   0.000  -0.000  -0.004  -0.000  -0.066   0.000   0.086   0.000
 -0.068  -0.000  -0.005  -0.000  -0.036  -0.000   0.076  -0.000   0.063   0.000  -0.066  -0.000  -0.004  -0.000  -0.035  -0.000
 total augmentation occupancy for first ion, spin component:           1
    NaN     NaN     NaN     NaN     NaN     NaN     NaN     NaN     NaN     NaN     NaN     NaN     NaN     NaN     NaN     NaN
    NaN     NaN     NaN     NaN     NaN     NaN     NaN     NaN     NaN     NaN     NaN     NaN     NaN     NaN     NaN     NaN
    NaN     NaN     NaN     NaN     NaN     NaN     NaN     NaN     NaN     NaN     NaN     NaN     NaN     NaN     NaN     NaN
    NaN     NaN     NaN     NaN     NaN     NaN     NaN     NaN     NaN     NaN     NaN     NaN     NaN     NaN     NaN     NaN
    NaN     NaN     NaN     NaN     NaN     NaN     NaN     NaN     NaN     NaN     NaN     NaN     NaN     NaN     NaN     NaN
    NaN     NaN     NaN     NaN     NaN     NaN     NaN     NaN     NaN     NaN     NaN     NaN     NaN     NaN     NaN     NaN
    NaN     NaN     NaN     NaN     NaN     NaN     NaN     NaN     NaN     NaN     NaN     NaN     NaN     NaN     NaN     NaN
    NaN     NaN     NaN     NaN     NaN     NaN     NaN     NaN     NaN     NaN     NaN     NaN     NaN     NaN     NaN     NaN
    NaN     NaN     NaN     NaN     NaN     NaN     NaN     NaN     NaN     NaN     NaN     NaN     NaN     NaN     NaN     NaN
    NaN     NaN     NaN     NaN     NaN     NaN     NaN     NaN     NaN     NaN     NaN     NaN     NaN     NaN     NaN     NaN
    NaN     NaN     NaN     NaN     NaN     NaN     NaN     NaN     NaN     NaN     NaN     NaN     NaN     NaN     NaN     NaN
    NaN     NaN     NaN     NaN     NaN     NaN     NaN     NaN     NaN     NaN     NaN     NaN     NaN     NaN     NaN     NaN
    NaN     NaN     NaN     NaN     NaN     NaN     NaN     NaN     NaN     NaN     NaN     NaN     NaN     NaN     NaN     NaN
    NaN     NaN     NaN     NaN     NaN     NaN     NaN     NaN     NaN     NaN     NaN     NaN     NaN     NaN     NaN     NaN
    NaN     NaN     NaN     NaN     NaN     NaN     NaN     NaN     NaN     NaN     NaN     NaN     NaN     NaN     NaN     NaN
    NaN     NaN     NaN     NaN     NaN     NaN     NaN     NaN     NaN     NaN     NaN     NaN     NaN     NaN     NaN     NaN
    NaN     NaN     NaN     NaN     NaN     NaN     NaN     NaN     NaN     NaN     NaN     NaN     NaN     NaN     NaN     NaN
    NaN     NaN     NaN     NaN     NaN     NaN     NaN     NaN     NaN     NaN     NaN     NaN     NaN     NaN     NaN     NaN
 total augmentation occupancy for first ion, spin component:           2
    NaN     NaN     NaN     NaN     NaN     NaN     NaN     NaN     NaN     NaN     NaN     NaN     NaN     NaN     NaN     NaN
    NaN     NaN     NaN     NaN     NaN     NaN     NaN     NaN     NaN     NaN     NaN     NaN     NaN     NaN     NaN     NaN
    NaN     NaN     NaN     NaN     NaN     NaN     NaN     NaN     NaN     NaN     NaN     NaN     NaN     NaN     NaN     NaN
    NaN     NaN     NaN     NaN     NaN     NaN     NaN     NaN     NaN     NaN     NaN     NaN     NaN     NaN     NaN     NaN
    NaN     NaN     NaN     NaN     NaN     NaN     NaN     NaN     NaN     NaN     NaN     NaN     NaN     NaN     NaN     NaN
    NaN     NaN     NaN     NaN     NaN     NaN     NaN     NaN     NaN     NaN     NaN     NaN     NaN     NaN     NaN     NaN
    NaN     NaN     NaN     NaN     NaN     NaN     NaN     NaN     NaN     NaN     NaN     NaN     NaN     NaN     NaN     NaN
    NaN     NaN     NaN     NaN     NaN     NaN     NaN     NaN     NaN     NaN     NaN     NaN     NaN     NaN     NaN     NaN
    NaN     NaN     NaN     NaN     NaN     NaN     NaN     NaN     NaN     NaN     NaN     NaN     NaN     NaN     NaN     NaN
    NaN     NaN     NaN     NaN     NaN     NaN     NaN     NaN     NaN     NaN     NaN     NaN     NaN     NaN     NaN     NaN
    NaN     NaN     NaN     NaN     NaN     NaN     NaN     NaN     NaN     NaN     NaN     NaN     NaN     NaN     NaN     NaN
    NaN     NaN     NaN     NaN     NaN     NaN     NaN     NaN     NaN     NaN     NaN     NaN     NaN     NaN     NaN     NaN
    NaN     NaN     NaN     NaN     NaN     NaN     NaN     NaN     NaN     NaN     NaN     NaN     NaN     NaN     NaN     NaN
    NaN     NaN     NaN     NaN     NaN     NaN     NaN     NaN     NaN     NaN     NaN     NaN     NaN     NaN     NaN     NaN
    NaN     NaN     NaN     NaN     NaN     NaN     NaN     NaN     NaN     NaN     NaN     NaN     NaN     NaN     NaN     NaN
    NaN     NaN     NaN     NaN     NaN     NaN     NaN     NaN     NaN     NaN     NaN     NaN     NaN     NaN     NaN     NaN
    NaN     NaN     NaN     NaN     NaN     NaN     NaN     NaN     NaN     NaN     NaN     NaN     NaN     NaN     NaN     NaN
    NaN     NaN     NaN     NaN     NaN     NaN     NaN     NaN     NaN     NaN     NaN     NaN     NaN     NaN     NaN     NaN
 total augmentation occupancy for first ion, spin component:           3
    NaN     NaN     NaN     NaN     NaN     NaN     NaN     NaN     NaN     NaN     NaN     NaN     NaN     NaN     NaN     NaN
    NaN     NaN     NaN     NaN     NaN     NaN     NaN     NaN     NaN     NaN     NaN     NaN     NaN     NaN     NaN     NaN
    NaN     NaN     NaN     NaN     NaN     NaN     NaN     NaN     NaN     NaN     NaN     NaN     NaN     NaN     NaN     NaN
    NaN     NaN     NaN     NaN     NaN     NaN     NaN     NaN     NaN     NaN     NaN     NaN     NaN     NaN     NaN     NaN
    NaN     NaN     NaN     NaN     NaN     NaN     NaN     NaN     NaN     NaN     NaN     NaN     NaN     NaN     NaN     NaN
    NaN     NaN     NaN     NaN     NaN     NaN     NaN     NaN     NaN     NaN     NaN     NaN     NaN     NaN     NaN     NaN
    NaN     NaN     NaN     NaN     NaN     NaN     NaN     NaN     NaN     NaN     NaN     NaN     NaN     NaN     NaN     NaN
    NaN     NaN     NaN     NaN     NaN     NaN     NaN     NaN     NaN     NaN     NaN     NaN     NaN     NaN     NaN     NaN
    NaN     NaN     NaN     NaN     NaN     NaN     NaN     NaN     NaN     NaN     NaN     NaN     NaN     NaN     NaN     NaN
    NaN     NaN     NaN     NaN     NaN     NaN     NaN     NaN     NaN     NaN     NaN     NaN     NaN     NaN     NaN     NaN
    NaN     NaN     NaN     NaN     NaN     NaN     NaN     NaN     NaN     NaN     NaN     NaN     NaN     NaN     NaN     NaN
    NaN     NaN     NaN     NaN     NaN     NaN     NaN     NaN     NaN     NaN     NaN     NaN     NaN     NaN     NaN     NaN
    NaN     NaN     NaN     NaN     NaN     NaN     NaN     NaN     NaN     NaN     NaN     NaN     NaN     NaN     NaN     NaN
    NaN     NaN     NaN     NaN     NaN     NaN     NaN     NaN     NaN     NaN     NaN     NaN     NaN     NaN     NaN     NaN
    NaN     NaN     NaN     NaN     NaN     NaN     NaN     NaN     NaN     NaN     NaN     NaN     NaN     NaN     NaN     NaN
    NaN     NaN     NaN     NaN     NaN     NaN     NaN     NaN     NaN     NaN     NaN     NaN     NaN     NaN     NaN     NaN
    NaN     NaN     NaN     NaN     NaN     NaN     NaN     NaN     NaN     NaN     NaN     NaN     NaN     NaN     NaN     NaN
    NaN     NaN     NaN     NaN     NaN     NaN     NaN     NaN     NaN     NaN     NaN     NaN     NaN     NaN     NaN     NaN
 total augmentation occupancy for first ion, spin component:           4
    NaN     NaN     NaN     NaN     NaN     NaN     NaN     NaN     NaN     NaN     NaN     NaN     NaN     NaN     NaN     NaN
    NaN     NaN     NaN     NaN     NaN     NaN     NaN     NaN     NaN     NaN     NaN     NaN     NaN     NaN     NaN     NaN
    NaN     NaN     NaN     NaN     NaN     NaN     NaN     NaN     NaN     NaN     NaN     NaN     NaN     NaN     NaN     NaN
    NaN     NaN     NaN     NaN     NaN     NaN     NaN     NaN     NaN     NaN     NaN     NaN     NaN     NaN     NaN     NaN
    NaN     NaN     NaN     NaN     NaN     NaN     NaN     NaN     NaN     NaN     NaN     NaN     NaN     NaN     NaN     NaN
    NaN     NaN     NaN     NaN     NaN     NaN     NaN     NaN     NaN     NaN     NaN     NaN     NaN     NaN     NaN     NaN
    NaN     NaN     NaN     NaN     NaN     NaN     NaN     NaN     NaN     NaN     NaN     NaN     NaN     NaN     NaN     NaN
    NaN     NaN     NaN     NaN     NaN     NaN     NaN     NaN     NaN     NaN     NaN     NaN     NaN     NaN     NaN     NaN
    NaN     NaN     NaN     NaN     NaN     NaN     NaN     NaN     NaN     NaN     NaN     NaN     NaN     NaN     NaN     NaN
    NaN     NaN     NaN     NaN     NaN     NaN     NaN     NaN     NaN     NaN     NaN     NaN     NaN     NaN     NaN     NaN
    NaN     NaN     NaN     NaN     NaN     NaN     NaN     NaN     NaN     NaN     NaN     NaN     NaN     NaN     NaN     NaN
    NaN     NaN     NaN     NaN     NaN     NaN     NaN     NaN     NaN     NaN     NaN     NaN     NaN     NaN     NaN     NaN
    NaN     NaN     NaN     NaN     NaN     NaN     NaN     NaN     NaN     NaN     NaN     NaN     NaN     NaN     NaN     NaN
    NaN     NaN     NaN     NaN     NaN     NaN     NaN     NaN     NaN     NaN     NaN     NaN     NaN     NaN     NaN     NaN
    NaN     NaN     NaN     NaN     NaN     NaN     NaN     NaN     NaN     NaN     NaN     NaN     NaN     NaN     NaN     NaN
    NaN     NaN     NaN     NaN     NaN     NaN     NaN     NaN     NaN     NaN     NaN     NaN     NaN     NaN     NaN     NaN
    NaN     NaN     NaN     NaN     NaN     NaN     NaN     NaN     NaN     NaN     NaN     NaN     NaN     NaN     NaN     NaN
    NaN     NaN     NaN     NaN     NaN     NaN     NaN     NaN     NaN     NaN     NaN     NaN     NaN     NaN     NaN     NaN


------------------------ aborting loop because EDIFF is reached ----------------------------------------





 total charge     

# of ion       s       p       d       tot
------------------------------------------
    1          NaN     NaN     NaN     NaN
    2          NaN     NaN     NaN     NaN
    3          NaN     NaN     NaN     NaN
    4          NaN     NaN     NaN     NaN
    5          NaN     NaN     NaN     NaN
    6          NaN     NaN     NaN     NaN
    7          NaN     NaN     NaN     NaN
    8          NaN     NaN     NaN     NaN
    9          NaN     NaN     NaN     NaN
   10          NaN     NaN     NaN     NaN
   11          NaN     NaN     NaN     NaN
   12          NaN     NaN     NaN     NaN
   13          NaN     NaN     NaN     NaN
   14          NaN     NaN     NaN     NaN
   15          NaN     NaN     NaN     NaN
   16          NaN     NaN     NaN     NaN
   17          NaN     NaN     NaN     NaN
   18          NaN     NaN     NaN     NaN
   19          NaN     NaN     NaN     NaN
   20          NaN     NaN     NaN     NaN
   21          NaN     NaN     NaN     NaN
   22          NaN     NaN     NaN     NaN
   23          NaN     NaN     NaN     NaN
   24          NaN     NaN     NaN     NaN
   25          NaN     NaN     NaN     NaN
   26          NaN     NaN     NaN     NaN
   27          NaN     NaN     NaN     NaN
   28          NaN     NaN     NaN     NaN
   29          NaN     NaN     NaN     NaN
   30          NaN     NaN     NaN     NaN
   31          NaN     NaN     NaN     NaN
   32          NaN     NaN     NaN     NaN
   33          NaN     NaN     NaN     NaN
   34          NaN     NaN     NaN     NaN
   35          NaN     NaN     NaN     NaN
   36          NaN     NaN     NaN     NaN
   37          NaN     NaN     NaN     NaN
   38          NaN     NaN     NaN     NaN
   39          NaN     NaN     NaN     NaN
   40          NaN     NaN     NaN     NaN
   41          NaN     NaN     NaN     NaN
   42          NaN     NaN     NaN     NaN
   43          NaN     NaN     NaN     NaN
   44          NaN     NaN     NaN     NaN
   45          NaN     NaN     NaN     NaN
   46          NaN     NaN     NaN     NaN
   47          NaN     NaN     NaN     NaN
   48          NaN     NaN     NaN     NaN
   49          NaN     NaN     NaN     NaN
   50          NaN     NaN     NaN     NaN
   51          NaN     NaN     NaN     NaN
   52          NaN     NaN     NaN     NaN
   53          NaN     NaN     NaN     NaN
   54          NaN     NaN     NaN     NaN
   55          NaN     NaN     NaN     NaN
   56          NaN     NaN     NaN     NaN
   57          NaN     NaN     NaN     NaN
   58          NaN     NaN     NaN     NaN
   59          NaN     NaN     NaN     NaN
   60          NaN     NaN     NaN     NaN
   61          NaN     NaN     NaN     NaN
   62          NaN     NaN     NaN     NaN
   63          NaN     NaN     NaN     NaN
   64          NaN     NaN     NaN     NaN
   65          NaN     NaN     NaN     NaN
--------------------------------------------------
tot            NaN     NaN     NaN     NaN



 magnetization (x)

# of ion       s       p       d       tot
------------------------------------------
    1          NaN     NaN     NaN     NaN
    2          NaN     NaN     NaN     NaN
    3          NaN     NaN     NaN     NaN
    4          NaN     NaN     NaN     NaN
    5          NaN     NaN     NaN     NaN
    6          NaN     NaN     NaN     NaN
    7          NaN     NaN     NaN     NaN
    8          NaN     NaN     NaN     NaN
    9          NaN     NaN     NaN     NaN
   10          NaN     NaN     NaN     NaN
   11          NaN     NaN     NaN     NaN
   12          NaN     NaN     NaN     NaN
   13          NaN     NaN     NaN     NaN
   14          NaN     NaN     NaN     NaN
   15          NaN     NaN     NaN     NaN
   16          NaN     NaN     NaN     NaN
   17          NaN     NaN     NaN     NaN
   18          NaN     NaN     NaN     NaN
   19          NaN     NaN     NaN     NaN
   20          NaN     NaN     NaN     NaN
   21          NaN     NaN     NaN     NaN
   22          NaN     NaN     NaN     NaN
   23          NaN     NaN     NaN     NaN
   24          NaN     NaN     NaN     NaN
   25          NaN     NaN     NaN     NaN
   26          NaN     NaN     NaN     NaN
   27          NaN     NaN     NaN     NaN
   28          NaN     NaN     NaN     NaN
   29          NaN     NaN     NaN     NaN
   30          NaN     NaN     NaN     NaN
   31          NaN     NaN     NaN     NaN
   32          NaN     NaN     NaN     NaN
   33          NaN     NaN     NaN     NaN
   34          NaN     NaN     NaN     NaN
   35          NaN     NaN     NaN     NaN
   36          NaN     NaN     NaN     NaN
   37          NaN     NaN     NaN     NaN
   38          NaN     NaN     NaN     NaN
   39          NaN     NaN     NaN     NaN
   40          NaN     NaN     NaN     NaN
   41          NaN     NaN     NaN     NaN
   42          NaN     NaN     NaN     NaN
   43          NaN     NaN     NaN     NaN
   44          NaN     NaN     NaN     NaN
   45          NaN     NaN     NaN     NaN
   46          NaN     NaN     NaN     NaN
   47          NaN     NaN     NaN     NaN
   48          NaN     NaN     NaN     NaN
   49          NaN     NaN     NaN     NaN
   50          NaN     NaN     NaN     NaN
   51          NaN     NaN     NaN     NaN
   52          NaN     NaN     NaN     NaN
   53          NaN     NaN     NaN     NaN
   54          NaN     NaN     NaN     NaN
   55          NaN     NaN     NaN     NaN
   56          NaN     NaN     NaN     NaN
   57          NaN     NaN     NaN     NaN
   58          NaN     NaN     NaN     NaN
   59          NaN     NaN     NaN     NaN
   60          NaN     NaN     NaN     NaN
   61          NaN     NaN     NaN     NaN
   62          NaN     NaN     NaN     NaN
   63          NaN     NaN     NaN     NaN
   64          NaN     NaN     NaN     NaN
   65          NaN     NaN     NaN     NaN
--------------------------------------------------
tot            NaN     NaN     NaN     NaN



 magnetization (y)

# of ion       s       p       d       tot
------------------------------------------
    1          NaN     NaN     NaN     NaN
    2          NaN     NaN     NaN     NaN
    3          NaN     NaN     NaN     NaN
    4          NaN     NaN     NaN     NaN
    5          NaN     NaN     NaN     NaN
    6          NaN     NaN     NaN     NaN
    7          NaN     NaN     NaN     NaN
    8          NaN     NaN     NaN     NaN
    9          NaN     NaN     NaN     NaN
   10          NaN     NaN     NaN     NaN
   11          NaN     NaN     NaN     NaN
   12          NaN     NaN     NaN     NaN
   13          NaN     NaN     NaN     NaN
   14          NaN     NaN     NaN     NaN
   15          NaN     NaN     NaN     NaN
   16          NaN     NaN     NaN     NaN
   17          NaN     NaN     NaN     NaN
   18          NaN     NaN     NaN     NaN
   19          NaN     NaN     NaN     NaN
   20          NaN     NaN     NaN     NaN
   21          NaN     NaN     NaN     NaN
   22          NaN     NaN     NaN     NaN
   23          NaN     NaN     NaN     NaN
   24          NaN     NaN     NaN     NaN
   25          NaN     NaN     NaN     NaN
   26          NaN     NaN     NaN     NaN
   27          NaN     NaN     NaN     NaN
   28          NaN     NaN     NaN     NaN
   29          NaN     NaN     NaN     NaN
   30          NaN     NaN     NaN     NaN
   31          NaN     NaN     NaN     NaN
   32          NaN     NaN     NaN     NaN
   33          NaN     NaN     NaN     NaN
   34          NaN     NaN     NaN     NaN
   35          NaN     NaN     NaN     NaN
   36          NaN     NaN     NaN     NaN
   37          NaN     NaN     NaN     NaN
   38          NaN     NaN     NaN     NaN
   39          NaN     NaN     NaN     NaN
   40          NaN     NaN     NaN     NaN
   41          NaN     NaN     NaN     NaN
   42          NaN     NaN     NaN     NaN
   43          NaN     NaN     NaN     NaN
   44          NaN     NaN     NaN     NaN
   45          NaN     NaN     NaN     NaN
   46          NaN     NaN     NaN     NaN
   47          NaN     NaN     NaN     NaN
   48          NaN     NaN     NaN     NaN
   49          NaN     NaN     NaN     NaN
   50          NaN     NaN     NaN     NaN
   51          NaN     NaN     NaN     NaN
   52          NaN     NaN     NaN     NaN
   53          NaN     NaN     NaN     NaN
   54          NaN     NaN     NaN     NaN
   55          NaN     NaN     NaN     NaN
   56          NaN     NaN     NaN     NaN
   57          NaN     NaN     NaN     NaN
   58          NaN     NaN     NaN     NaN
   59          NaN     NaN     NaN     NaN
   60          NaN     NaN     NaN     NaN
   61          NaN     NaN     NaN     NaN
   62          NaN     NaN     NaN     NaN
   63          NaN     NaN     NaN     NaN
   64          NaN     NaN     NaN     NaN
   65          NaN     NaN     NaN     NaN
--------------------------------------------------
tot            NaN     NaN     NaN     NaN



 magnetization (z)

# of ion       s       p       d       tot
------------------------------------------
    1          NaN     NaN     NaN     NaN
    2          NaN     NaN     NaN     NaN
    3          NaN     NaN     NaN     NaN
    4          NaN     NaN     NaN     NaN
    5          NaN     NaN     NaN     NaN
    6          NaN     NaN     NaN     NaN
    7          NaN     NaN     NaN     NaN
    8          NaN     NaN     NaN     NaN
    9          NaN     NaN     NaN     NaN
   10          NaN     NaN     NaN     NaN
   11          NaN     NaN     NaN     NaN
