 vasp.5.4.4.18Apr17-6-g9f103f2a35 (build Oct 13 2020 16:44:00) complex           
 executed on        HPECrayEX-GNU date 2020.11.05  08:32:50
 running on 1024 total cores
 distrk:  each k-point on  512 cores,    2 groups
 distr:  one band on NCORES_PER_BAND=  32 cores,   16 groups


--------------------------------------------------------------------------------------------------------


 INCAR:
 POTCAR:    PAW_PBE Cd 06Sep2000                  
 POTCAR:    PAW_PBE Te 08Apr2002                  

 ----------------------------------------------------------------------------- 
|                                                                             |
|           W    W    AA    RRRRR   N    N  II  N    N   GGGG   !!!           |
|           W    W   A  A   R    R  NN   N  II  NN   N  G    G  !!!           |
|           W    W  A    A  R    R  N N  N  II  N N  N  G       !!!           |
|           W WW W  AAAAAA  RRRRR   N  N N  II  N  N N  G  GGG   !            |
|           WW  WW  A    A  R   R   N   NN  II  N   NN  G    G                |
|           W    W  A    A  R    R  N    N  II  N    N   GGGG   !!!           |
|                                                                             |
|      You have enabled k-point parallelism (KPAR>1).                         |
|      This developmental code was originally  written by Paul Kent at ORNL,  |
|      and carefully double checked in Vienna.                                |
|      GW as well as linear response parallelism added by Martijn Marsman     |
|      and Georg Kresse.                                                      |
|      Carefully verify results versus KPAR=1.                                |
|      Report problems to Paul Kent and Vienna.                               |
|                                                                             |
 ----------------------------------------------------------------------------- 

 POTCAR:    PAW_PBE Cd 06Sep2000                  
   VRHFIN =Cd : s2 d10                                                          
   LEXCH  = PE                                                                  
   EATOM  =  1293.1815 eV,   95.0462 Ry                                         
                                                                                
   TITEL  = PAW_PBE Cd 06Sep2000                                                
   LULTRA =        F    use ultrasoft PP ?                                      
   IUNSCR =        1    unscreen: 0-lin 1-nonlin 2-no                           
   RPACOR =    2.000    partial core radius                                     
   POMASS =  112.411; ZVAL   =   12.000    mass and valenz                      
   RCORE  =    2.300    outmost cutoff radius                                   
   RWIGS  =    2.980; RWIGS  =    1.577    wigner-seitz radius (au A)           
   ENMAX  =  274.336; ENMIN  =  205.752 eV                                      
   RCLOC  =    2.054    cutoff for local pot                                    
   LCOR   =        T    correct aug charges                                     
   LPAW   =        T    paw PP                                                  
   EAUG   =  456.106                                                            
   DEXC   =    0.000                                                            
   RMAX   =    2.358    core radius for proj-oper                               
   RAUG   =    1.300    factor for augmentation sphere                          
   RDEP   =    2.450    radius for radial grids                                 
   RDEPT  =    1.955    core radius for aug-charge                              
                                                                                
   Atomic configuration                                                         
   12 entries                                                                   
     n  l   j            E        occ.                                          
     1  0  0.50    -26519.7817   2.0000                                         
     2  0  0.50     -3936.9612   2.0000                                         
     2  1  1.50     -3532.2230   6.0000                                         
     3  0  0.50      -733.7908   2.0000                                         
     3  1  1.50      -601.0792   6.0000                                         
     3  2  2.50      -393.5307  10.0000                                         
     4  0  0.50      -105.8977   2.0000                                         
     4  1  1.50       -66.9488   6.0000                                         
     4  2  2.50       -11.7331  10.0000                                         
     5  0  0.50        -5.6592   2.0000                                         
     5  1  0.50        -1.3606   0.0000                                         
     4  3  2.50        -1.3606   0.0000                                         
   Description                                                                  
     l       E           TYP  RCUT    TYP  RCUT                                 
     2    -11.7331479     23  2.300                                             
     2    -13.0937305     23  2.300                                             
     0     -5.6591502     23  2.300                                             
     0     -1.5561433     23  2.300                                             
     1     -2.7211652     23  2.300                                             
     1      8.3548275     23  2.300                                             
  local pseudopotential read in
  partial core-charges read in
  partial kinetic energy density read in
  atomic valenz-charges read in
  non local Contribution for L=           2  read in
    real space projection operators read in
  non local Contribution for L=           2  read in
    real space projection operators read in
  non local Contribution for L=           0  read in
    real space projection operators read in
  non local Contribution for L=           0  read in
    real space projection operators read in
  non local Contribution for L=           1  read in
    real space projection operators read in
  non local Contribution for L=           1  read in
    real space projection operators read in
    PAW grid and wavefunctions read in

   number of l-projection  operators is LMAX  =           6
   number of lm-projection operators is LMMAX =          18

 POTCAR:    PAW_PBE Te 08Apr2002                  
   VRHFIN =Te: s2p4                                                             
   LEXCH  = PE                                                                  
   EATOM  =   223.2721 eV,   16.4100 Ry                                         
                                                                                
   TITEL  = PAW_PBE Te 08Apr2002                                                
   LULTRA =        F    use ultrasoft PP ?                                      
   IUNSCR =        1    unscreen: 0-lin 1-nonlin 2-no                           
   RPACOR =    2.200    partial core radius                                     
   POMASS =  127.600; ZVAL   =    6.000    mass and valenz                      
   RCORE  =    2.300    outmost cutoff radius                                   
   RWIGS  =    2.900; RWIGS  =    1.535    wigner-seitz radius (au A)           
   ENMAX  =  174.982; ENMIN  =  131.236 eV                                      
   ICORE  =        3    local potential                                         
   LCOR   =        T    correct aug charges                                     
   LPAW   =        T    paw PP                                                  
   EAUG   =  368.792                                                            
   DEXC   =    0.000                                                            
   RMAX   =    2.345    core radius for proj-oper                               
   RAUG   =    1.300    factor for augmentation sphere                          
   RDEP   =    2.397    radius for radial grids                                 
   RDEPT  =    2.174    core radius for aug-charge                              
                                                                                
   Atomic configuration                                                         
   13 entries                                                                   
     n  l   j            E        occ.                                          
     1  0  0.50    -31621.2075   2.0000                                         
     2  0  0.50     -4848.7941   2.0000                                         
     2  1  1.50     -4352.1960   6.0000                                         
     3  0  0.50      -964.9612   2.0000                                         
     3  1  1.50      -803.6179   6.0000                                         
     3  2  2.50      -559.8710  10.0000                                         
     4  0  0.50      -164.3522   2.0000                                         
     4  1  1.50      -114.3756   6.0000                                         
     4  2  2.50       -41.6483  10.0000                                         
     5  0  0.50       -15.1072   2.0000                                         
     5  1  0.50        -5.9526   4.0000                                         
     5  2  1.50        -5.4423   0.0000                                         
     4  3  2.50        -5.4423   0.0000                                         
   Description                                                                  
     l       E           TYP  RCUT    TYP  RCUT                                 
     0    -15.1072389     23  2.300                                             
     0    -16.4678215     23  2.300                                             
     1     -5.9526306     23  2.300                                             
     1     -2.4873968     23  2.300                                             
     2     -5.4423304     23  2.300                                             
     3     -1.3605826     23  2.300                                             
  local pseudopotential read in
  partial core-charges read in
  partial kinetic energy density read in
  atomic valenz-charges read in
  non local Contribution for L=           0  read in
    real space projection operators read in
  non local Contribution for L=           0  read in
    real space projection operators read in
  non local Contribution for L=           1  read in
    real space projection operators read in
  non local Contribution for L=           1  read in
    real space projection operators read in
  non local Contribution for L=           2  read in
    real space projection operators read in
    PAW grid and wavefunctions read in

   number of l-projection  operators is LMAX  =           5
   number of lm-projection operators is LMMAX =          13


 ----------------------------------------------------------------------------- 
|                                                                             |
|  ADVICE TO THIS USER RUNNING 'VASP/VAMP'   (HEAR YOUR MASTER'S VOICE ...):  |
|                                                                             |
|      You have a (more or less) 'large supercell' and for larger cells       |
|      it might be more efficient to use real space projection opertators     |
|      So try LREAL= Auto  in the INCAR   file.                               |
|      Mind:          For very  accurate calculation you might also keep the  |
|      reciprocal projection scheme          (i.e. LREAL=.FALSE.)             |
|                                                                             |
 ----------------------------------------------------------------------------- 

  PAW_PBE Cd 06Sep2000                  :
 energy of atom  1       EATOM=-1293.1815
 kinetic energy error for atom=    0.0084 (will be added to EATOM!!)
  PAW_PBE Te 08Apr2002                  :
 energy of atom  2       EATOM= -223.2721
 kinetic energy error for atom=    0.0008 (will be added to EATOM!!)


 POSCAR: Cd33 Te32                               
  positions in direct lattice
  No initial velocities read in
 exchange correlation table for  LEXCH =        8
   RHO(1)=    0.500       N(1)  =     2000
   RHO(2)=  100.500       N(2)  =     4000



--------------------------------------------------------------------------------------------------------


 ion  position               nearest neighbor table
   1  0.004  0.996  0.004-  44 2.79  35 2.93  54 2.93  65 2.93  33 2.94
   2  0.001  0.999  0.497-  55 2.82  34 2.82  64 2.82  45 2.84
   3  0.001  0.503  0.001-  63 2.82  56 2.82  37 2.82  42 2.84
   4  1.000  0.501  0.499-  57 2.82  62 2.82  36 2.82  43 2.84
   5  0.497  0.999  0.001-  39 2.82  50 2.82  61 2.82  48 2.84
   6  0.499  0.000  0.499-  38 2.82  51 2.82  60 2.82  49 2.84
   7  0.499  0.501  1.000-  41 2.82  59 2.82  52 2.82  46 2.84
   8  0.501  0.499  0.501-  47 2.82  40 2.83  53 2.83  58 2.83
   9  0.001  0.251  0.253-  54 2.82  34 2.82  62 2.82  42 2.84
  10  0.004  0.254  0.746-  43 2.79  35 2.93  55 2.93  63 2.93  33 2.94
  11  1.000  0.749  0.251-  56 2.82  64 2.82  36 2.82  44 2.84
  12  0.001  0.747  0.749-  65 2.82  57 2.82  37 2.82  45 2.84
  13  0.499  0.250  0.251-  38 2.82  50 2.82  58 2.82  46 2.84
  14  0.497  0.251  0.749-  39 2.82  51 2.82  59 2.82  47 2.84
  15  0.501  0.751  0.249-  48 2.82  40 2.83  52 2.83  60 2.83
  16  0.499  0.749  0.750-  41 2.82  61 2.82  53 2.82  49 2.84
  17  0.251  0.000  0.251-  34 2.82  50 2.82  60 2.82  44 2.84
  18  0.253  0.999  0.749-  35 2.82  51 2.82  61 2.82  45 2.84
  19  0.249  0.499  0.249-  42 2.82  36 2.83  52 2.83  58 2.83
  20  0.251  0.501  0.750-  37 2.82  59 2.82  53 2.82  43 2.84
  21  0.749  0.999  0.253-  54 2.82  38 2.82  64 2.82  48 2.84
  22  0.746  0.996  0.746-  49 2.79  39 2.93  55 2.93  65 2.93  33 2.94
  23  0.750  0.501  0.251-  56 2.82  62 2.82  40 2.82  46 2.84
  24  0.749  0.503  0.749-  63 2.82  57 2.82  41 2.82  47 2.84
  25  0.253  0.251  0.001-  35 2.82  50 2.82  59 2.82  42 2.84
  26  0.251  0.250  0.499-  34 2.82  51 2.82  58 2.82  43 2.84
  27  0.251  0.749  1.000-  37 2.82  61 2.82  52 2.82  44 2.84
  28  0.249  0.751  0.501-  45 2.82  36 2.83  53 2.83  60 2.83
  29  0.746  0.254  0.004-  46 2.79  39 2.93  54 2.93  63 2.93  33 2.94
  30  0.749  0.251  0.497-  55 2.82  38 2.82  62 2.82  47 2.84
  31  0.749  0.747  0.001-  65 2.82  56 2.82  41 2.82  48 2.84
  32  0.750  0.749  0.499-  57 2.82  64 2.82  40 2.82  49 2.84
  33  0.875  0.125  0.875-   1 2.94  10 2.94  22 2.94  29 2.94  35 3.37  39 3.37  54 3.37  55 3.37
                            63 3.37  65 3.37
  34  0.127  0.125  0.375-  17 2.82  26 2.82   2 2.82   9 2.82
  35  0.133  0.125  0.875-  18 2.82  25 2.82  10 2.93   1 2.93  33 3.37
  36  0.126  0.625  0.375-   4 2.82  11 2.82  19 2.83  28 2.83
  37  0.127  0.625  0.875-  20 2.82  27 2.82   3 2.82  12 2.82
  38  0.623  0.125  0.375-  13 2.82   6 2.82  21 2.82  30 2.82
  39  0.617  0.125  0.875-  14 2.82   5 2.82  22 2.93  29 2.93  33 3.37
  40  0.624  0.625  0.375-  23 2.82  32 2.82   8 2.83  15 2.83
  41  0.623  0.625  0.875-   7 2.82  16 2.82  31 2.82  24 2.82
  42  0.125  0.375  0.125-  19 2.82   9 2.84  25 2.84   3 2.84
  43  0.127  0.377  0.623-  10 2.79   4 2.84  26 2.84  20 2.84
  44  0.127  0.873  0.127-   1 2.79  11 2.84  17 2.84  27 2.84
  45  0.125  0.875  0.625-  28 2.82  18 2.84   2 2.84  12 2.84
  46  0.623  0.377  0.127-  29 2.79  13 2.84  23 2.84   7 2.84
  47  0.625  0.375  0.625-   8 2.82  14 2.84  24 2.84  30 2.84
  48  0.625  0.875  0.125-  15 2.82  21 2.84   5 2.84  31 2.84
  49  0.623  0.873  0.623-  22 2.79  32 2.84   6 2.84  16 2.84
  50  0.375  0.125  0.127-  17 2.82  13 2.82   5 2.82  25 2.82
  51  0.375  0.125  0.623-   6 2.82  26 2.82  18 2.82  14 2.82
  52  0.375  0.625  0.126-   7 2.82  27 2.82  19 2.83  15 2.83
  53  0.375  0.625  0.624-  16 2.82  20 2.82   8 2.83  28 2.83
  54  0.875  0.125  0.133-   9 2.82  21 2.82   1 2.93  29 2.93  33 3.37
  55  0.875  0.125  0.617-  30 2.82   2 2.82  22 2.93  10 2.93  33 3.37
  56  0.875  0.625  0.127-  11 2.82  23 2.82   3 2.82  31 2.82
  57  0.875  0.625  0.623-   4 2.82  32 2.82  12 2.82  24 2.82
  58  0.375  0.376  0.375-  26 2.82  13 2.82  19 2.83   8 2.83
  59  0.375  0.377  0.875-   7 2.82  20 2.82  14 2.82  25 2.82
  60  0.375  0.874  0.375-   6 2.82  17 2.82  15 2.83  28 2.83
  61  0.375  0.873  0.875-  16 2.82  27 2.82   5 2.82  18 2.82
  62  0.875  0.377  0.375-   4 2.82  23 2.82   9 2.82  30 2.82
  63  0.875  0.383  0.875-  24 2.82   3 2.82  10 2.93  29 2.93  33 3.37
  64  0.875  0.873  0.375-  11 2.82  32 2.82   2 2.82  21 2.82
  65  0.875  0.867  0.875-  12 2.82  31 2.82   1 2.93  22 2.93  33 3.37


IMPORTANT INFORMATION: All symmetrisations will be switched off!
NOSYMM: (Re-)initialisation of all symmetry stuff for point group C_1.



 KPOINTS: Automatically generated mesh            
  k-points in reciprocal lattice
Space group operators:
 irot       det(A)        alpha          n_x          n_y          n_z        tau_x        tau_y        tau_z
    1     1.000000     0.000000     1.000000     0.000000     0.000000     0.000000     0.000000     0.000000

 ----------------------------------------------------------------------------- 
|                                                                             |
|           W    W    AA    RRRRR   N    N  II  N    N   GGGG   !!!           |
|           W    W   A  A   R    R  NN   N  II  NN   N  G    G  !!!           |
|           W    W  A    A  R    R  N N  N  II  N N  N  G       !!!           |
|           W WW W  AAAAAA  RRRRR   N  N N  II  N  N N  G  GGG   !            |
|           WW  WW  A    A  R   R   N   NN  II  N   NN  G    G                |
|           W    W  A    A  R    R  N    N  II  N    N   GGGG   !!!           |
|                                                                             |
|      Your generating k-point grid is not commensurate to the symmetry       |
|      of the lattice.  This can cause   slow convergence with respect        |
|      to k-points for HF type calculations                                   |
|      suggested SOLUTIONS:                                                   |
|       ) if not already the case, use automatic k-point generation           |
|       ) shift your grid to Gamma (G) (e.g. required for hex or fcc lattice) |
|                                                                             |
 ----------------------------------------------------------------------------- 

 
 Subroutine IBZKPT_HF returns following result:
 ==============================================
 
 Found      8 k-points in 1st BZ
 the following      8 k-points will be used (e.g. in the exchange kernel)
 Following reciprocal coordinates:   # in IRBZ
  0.000000  0.000000  0.000000    0.12500000   1 t-inv F
  0.500000  0.000000  0.000000    0.12500000   2 t-inv F
  0.000000  0.500000  0.000000    0.12500000   3 t-inv F
  0.500000  0.500000  0.000000    0.12500000   4 t-inv F
  0.000000  0.000000  0.500000    0.12500000   5 t-inv F
  0.500000  0.000000  0.500000    0.12500000   6 t-inv F
  0.000000  0.500000  0.500000    0.12500000   7 t-inv F
  0.500000  0.500000  0.500000    0.12500000   8 t-inv F


--------------------------------------------------------------------------------------------------------




 Dimension of arrays:
   k-points           NKPTS =      8   k-points in BZ     NKDIM =      8   number of bands    NBANDS=    784
   number of dos      NEDOS =   2000   number of ions     NIONS =     65
   non local maximal  LDIM  =      6   non local SUM 2l+1 LMDIM =     18
   total plane-waves  NPLWV = 884736
   max r-space proj   IRMAX =      1   max aug-charges    IRDMAX= 183854
   dimension x,y,z NGX =    96 NGY =   96 NGZ =   96
   dimension x,y,z NGXF=   192 NGYF=  192 NGZF=  192
   support grid    NGXF=   384 NGYF=  384 NGZF=  384
   ions per type =              33  32
   NGX,Y,Z   is equivalent  to a cutoff of  12.20, 12.20, 12.20 a.u.
   NGXF,Y,Z  is equivalent  to a cutoff of  24.39, 24.39, 24.39 a.u.

 SYSTEM =  unknown system                          
 POSCAR =  Cd33 Te32                               

 Startparameter for this run:
   NWRITE =      2    write-flag & timer
   PREC   = accura    normal or accurate (medium, high low for compatibility)
   ISTART =      0    job   : 0-new  1-cont  2-samecut
   ICHARG =      1    charge: 1-file 2-atom 10-const
   ISPIN  =      1    spin polarized calculation?
   LNONCOLLINEAR =      T non collinear calculations
   LSORBIT =      T    spin-orbit coupling
   INIWAV =      1    electr: 0-lowe 1-rand  2-diag
   LASPH  =      T    aspherical Exc in radial PAW
   METAGGA=      F    non-selfconsistent MetaGGA calc.

 Electronic Relaxation 1
   ENCUT  =  450.0 eV  33.07 Ry    5.75 a.u.  22.64 22.64 22.64*2*pi/ulx,y,z
   ENINI  =  450.0     initial cutoff
   ENAUG  =  456.1 eV  augmentation charge cutoff
   NELM   =      6;   NELMIN=  2; NELMDL= -5     # of ELM steps 
   EDIFF  = 0.1E-05   stopping-criterion for ELM
   LREAL  =      F    real-space projection
   NLSPLINE    = F    spline interpolate recip. space projectors
   LCOMPAT=      F    compatible to vasp.4.4
   GGA_COMPAT  = T    GGA compatible to vasp.4.4-vasp.4.6
   LMAXPAW     = -100 max onsite density
   LMAXMIX     =    2 max onsite mixed and CHGCAR
   VOSKOWN=      0    Vosko Wilk Nusair interpolation
   ROPT   =    0.00000   0.00000
 Ionic relaxation
   EDIFFG = -.1E-01   stopping-criterion for IOM
   NSW    =      0    number of steps for IOM
   NBLOCK =      1;   KBLOCK =      1    inner block; outer block 
   IBRION =     -1    ionic relax: 0-MD 1-quasi-New 2-CG
   NFREE  =      0    steps in history (QN), initial steepest desc. (CG)
   ISIF   =      2    stress and relaxation
   IWAVPR =     10    prediction:  0-non 1-charg 2-wave 3-comb
   ISYM   =      0    0-nonsym 1-usesym 2-fastsym
   LCORR  =      T    Harris-Foulkes like correction to forces

   POTIM  = 0.5000    time-step for ionic-motion
   TEIN   =    0.0    initial temperature
   TEBEG  =    0.0;   TEEND  =   0.0 temperature during run
   SMASS  =  -3.00    Nose mass-parameter (am)
   estimated Nose-frequenzy (Omega)   =  0.10E-29 period in steps =****** mass=  -0.391E-26a.u.
   SCALEE = 1.0000    scale energy and forces
   NPACO  =    256;   APACO  = 16.0  distance and # of slots for P.C.
   PSTRESS=    0.0 pullay stress

  Mass of Ions in am
   POMASS = 112.41127.60
  Ionic Valenz
   ZVAL   =  12.00  6.00
  Atomic Wigner-Seitz radii
   RWIGS  =  -1.00 -1.00
  virtual crystal weights 
   VCA    =   1.00  1.00
   NELECT =     588.0000    total number of electrons
   NUPDOWN=      -1.0000    fix difference up-down

 DOS related values:
   EMIN   =  10.00;   EMAX   =-10.00  energy-range for DOS
   EFERMI =   0.00
   ISMEAR =     0;   SIGMA  =   0.05  broadening in eV -4-tet -1-fermi 0-gaus

 Electronic relaxation 2 (details)
   IALGO  =     58    algorithm
   LDIAG  =      T    sub-space diagonalisation (order eigenvalues)
   LSUBROT=      F    optimize rotation matrix (better conditioning)
   TURBO    =      0    0=normal 1=particle mesh
   IRESTART =      0    0=no restart 2=restart with 2 vectors
   NREBOOT  =      0    no. of reboots
   NMIN     =      0    reboot dimension
   EREF     =   0.00    reference energy to select bands
   IMIX   =      4    mixing-type and parameters
     AMIX     =   0.40;   BMIX     =  1.00
     AMIX_MAG =   1.60;   BMIX_MAG =  1.00
     AMIN     =   0.10
     WC   =   100.;   INIMIX=   1;  MIXPRE=   1;  MAXMIX= -45

 Intra band minimization:
   WEIMIN = 0.0000     energy-eigenvalue tresh-hold
   EBREAK =  0.32E-09  absolut break condition
   DEPER  =   0.30     relativ break condition  

   TIME   =   0.40     timestep for ELM

  volume/ion in A,a.u.               =      34.48       232.69
  Fermi-wavevector in a.u.,A,eV,Ry     =   1.048017  1.980464 14.943809  1.098339
  Thomas-Fermi vector in A             =   2.182921

 Write flags
   LWAVE        =      T    write WAVECAR
   LDOWNSAMPLE  =      F    k-point downsampling of WAVECAR
   LCHARG       =      T    write CHGCAR
   LVTOT        =      F    write LOCPOT, total local potential
   LVHAR        =      T    write LOCPOT, Hartree potential only
   LELF         =      F    write electronic localiz. function (ELF)
   LORBIT       =     11    0 simple, 1 ext, 2 COOP (PROOUT), +10 PAW based schemes


 Dipole corrections
   LMONO  =      F    monopole corrections only (constant potential shift)
   LDIPOL =      F    correct potential (dipole corrections)
   IDIPOL =      0    1-x, 2-y, 3-z, 4-all directions 
   EPSILON=  1.0000000 bulk dielectric constant

 Exchange correlation treatment:
   GGA     =    --    GGA type
   LEXCH   =     8    internal setting for exchange type
   VOSKOWN=      0    Vosko Wilk Nusair interpolation
   EXXOEP  =     0    0=HF, 1=EXX-LHF (local Hartree Fock) 2=EXX OEP
   LHFCALC =     T    Hartree Fock is set to
   LSYMGRAD=     F    symmetrize gradient (conserves proper symmetry)
   PRECFOCK=fast      Normal, Fast or Accurate (Low or Medium for compatibility)
   LRHFCALC=     F    long range Hartree Fock
   LRSCOR  =     F    long range correlation only (use DFT for short range part)
   LTHOMAS =     F    Thomas Fermi screening in HF
   LMODELHF=     F    short range full HF, long range fraction AEXX
   ENCUT4O =  -1.0   cutoff for four orbital integrals eV
   LMAXFOCK=     4    L truncation for augmentation on plane wave grid
   LMAXFOCKAE=  -1    L truncation for all-electron charge restoration on plane wave grid
   NMAXFOCKAE=   1    number of basis functions for all-electron charge restoration
   LFOCKAEDFT=     F  apply the AE augmentation even for DFT
   NKREDX  =     1    reduce k-point grid by
   NKREDY  =     1    reduce k-point grid by
   NKREDZ  =     1    reduce k-point grid by
   SHIFTRED=     F    shift reduced grid of Gamma
   HFKIDENT=     F    idential grid for each k-point
   ODDONLY =     F    use only odd q-grid points
   EVENONLY=     F    use only even q-grid points
   HFALPHA =   -1.0000 decay constant for conv. correction
   MCALPHA =    0.0000 extent of test-charge in conv. correction in multipole expansion
   AEXX    =    0.2500 exact exchange contribution
   HFSCREEN=    0.2000 screening length (either q_TF or 0.3 A-1)
   HFSCREENC=   0.2000 screening length for correlation (either q_TF or 0.3 A-1)
   HFRCUT  =    0.0000 spherical cutoff for potential kernel
   ALDAX   =    0.7500 LDA exchange part
   AGGAX   =    0.7500 GGA exchange part
   ALDAC   =    1.0000 LDA correlation
   AGGAC   =    1.0000 GGA correlation
   ENCUTFOCK=  -1.0 apply spherical cutoff to Coloumb kernel
   NBANDSGWLOW=     1    first orbital included in HF term
   NBLOCK_FOCK=    64    blocking factor in FOCK_ACC
 Linear response parameters
   LEPSILON=     F    determine dielectric tensor
   LRPA    =     F    only Hartree local field effects (RPA)
   LNABLA  =     F    use nabla operator in PAW spheres
   LVEL    =     F    velocity operator in full k-point grid
   LINTERFAST=   F  fast interpolation
   KINTER  =     0    interpolate to denser k-point grid
   CSHIFT  =0.1000    complex shift for real part using Kramers Kronig
   OMEGAMAX=  -1.0    maximum frequency
   DEG_THRESHOLD= 0.2000000E-02 threshold for treating states as degnerate
   RTIME   =   -0.100 relaxation time in fs
  (WPLASMAI=    0.000 imaginary part of plasma frequency in eV, 0.658/RTIME)
   DFIELD  = 0.0000000 0.0000000 0.0000000 field for delta impulse in time

 Orbital magnetization related:
   ORBITALMAG=     F  switch on orbital magnetization
   LCHIMAG   =     F  perturbation theory with respect to B field
   DQ        =  0.001000  dq finite difference perturbation B field
   LLRAUG    =     F  two centre corrections for induced B field



--------------------------------------------------------------------------------------------------------


 Static calculation
 charge density and potential will be updated during run
 non collinear spin polarized calculation
 Conjugate gradient for all bands (Freysoldt, et al. PRB 79, 241103 (2009))
 preconditioned conjugated gradient                                        
 perform sub-space diagonalisation
    before iterative eigenvector-optimisation
 modified Broyden-mixing scheme, WC =      100.0
 initial mixing is a Kerker type mixing with AMIX =  0.4000 and BMIX =      1.0000
 Hartree-type preconditioning will be used
 using additional bands          490
 reciprocal scheme for non local part
 use partial core corrections
 no Harris-corrections to forces 
 use gradient corrections 
 use of overlap-Matrix (Vanderbilt PP)
 Gauss-broadening in eV      SIGMA  =   0.05


--------------------------------------------------------------------------------------------------------


  energy-cutoff  :      450.00
  volume of cell :     2241.29
      direct lattice vectors                 reciprocal lattice vectors
    13.086768000  0.000000000  0.000000000     0.076413061  0.000000000  0.000000000
     0.000000000 13.086768000  0.000000000     0.000000000  0.076413061  0.000000000
     0.000000000  0.000000000 13.086768000     0.000000000  0.000000000  0.076413061

  length of vectors
    13.086768000 13.086768000 13.086768000     0.076413061  0.076413061  0.076413061



 k-points in units of 2pi/SCALE and weight: Automatically generated mesh            
   0.00000000  0.00000000  0.00000000       0.125
   0.03820653  0.00000000  0.00000000       0.125
   0.00000000  0.03820653  0.00000000       0.125
   0.03820653  0.03820653  0.00000000       0.125
   0.00000000  0.00000000  0.03820653       0.125
   0.03820653  0.00000000  0.03820653       0.125
   0.00000000  0.03820653  0.03820653       0.125
   0.03820653  0.03820653  0.03820653       0.125

 k-points in reciprocal lattice and weights: Automatically generated mesh            
   0.00000000  0.00000000  0.00000000       0.125
   0.50000000  0.00000000  0.00000000       0.125
   0.00000000  0.50000000  0.00000000       0.125
   0.50000000  0.50000000  0.00000000       0.125
   0.00000000  0.00000000  0.50000000       0.125
   0.50000000  0.00000000  0.50000000       0.125
   0.00000000  0.50000000  0.50000000       0.125
   0.50000000  0.50000000  0.50000000       0.125

 position of ions in fractional coordinates (direct lattice) 
   0.00448500  0.99551500  0.00448500
   0.00124700  0.99875300  0.49695900
   0.00124700  0.50304100  0.00124700
   0.99962500  0.50121800  0.49878200
   0.49695900  0.99875300  0.00124700
   0.49878100  0.00037500  0.49878100
   0.49878100  0.50121900  0.99962500
   0.50052800  0.49947200  0.50052800
   0.00124700  0.25124700  0.25304000
   0.00448600  0.25448500  0.74551500
   0.99962500  0.74878200  0.25121800
   0.00124700  0.74695900  0.74875300
   0.49878200  0.24962500  0.25121900
   0.49696000  0.25124700  0.74875300
   0.50052800  0.75052800  0.24947200
   0.49878100  0.74878100  0.75037500
   0.25121900  0.00037500  0.25121900
   0.25304000  0.99875300  0.74875300
   0.24947200  0.49947200  0.24947200
   0.25121900  0.50121900  0.75037500
   0.74875300  0.99875300  0.25304000
   0.74551400  0.99551500  0.74551500
   0.75037500  0.50121900  0.25121900
   0.74875300  0.50304000  0.74875300
   0.25304000  0.25124700  0.00124700
   0.25121900  0.24962500  0.49878100
   0.25121900  0.74878100  0.99962500
   0.24947200  0.75052800  0.50052800
   0.74551400  0.25448500  0.00448500
   0.74875300  0.25124700  0.49696000
   0.74875300  0.74695900  0.00124700
   0.75037500  0.74878200  0.49878200
   0.87500000  0.12500000  0.87500000
   0.12665600  0.12500000  0.37500000
   0.13277900  0.12500000  0.87500000
   0.12589200  0.62500000  0.37500000
   0.12665600  0.62500000  0.87500000
   0.62334400  0.12500000  0.37500000
   0.61722100  0.12500000  0.87500000
   0.62410800  0.62500000  0.37500000
   0.62334400  0.62500000  0.87500000
   0.12484800  0.37484800  0.12484800
   0.12748800  0.37748800  0.62251200
   0.12748800  0.87251200  0.12748800
   0.12484800  0.87515200  0.62515200
   0.62251200  0.37748800  0.12748800
   0.62515200  0.37484800  0.62515200
   0.62515200  0.87515200  0.12484800
   0.62251200  0.87251200  0.62251200
   0.37500000  0.12500000  0.12665600
   0.37500000  0.12500000  0.62334400
   0.37500000  0.62500000  0.12589200
   0.37500000  0.62500000  0.62410800
   0.87500000  0.12500000  0.13277900
   0.87500000  0.12500000  0.61722100
   0.87500000  0.62500000  0.12665600
   0.87500000  0.62500000  0.62334400
   0.37500000  0.37589200  0.37500000
   0.37500000  0.37665600  0.87500000
   0.37500000  0.87410800  0.37500000
   0.37500000  0.87334400  0.87500000
   0.87500000  0.37665600  0.37500000
   0.87500000  0.38277900  0.87500000
   0.87500000  0.87334400  0.37500000
   0.87500000  0.86722100  0.87500000

 position of ions in cartesian coordinates  (Angst):
   0.05869415 13.02807385  0.05869415
   0.01631920 13.07044880  6.50358714
   0.01631920  6.58318086  0.01631920
  13.08186046  6.55932368  6.52744432
   6.50358714 13.07044880  0.01631920
   6.52743123  0.00490754  6.52743123
   6.52743123  6.55933677 13.08186046
   6.55029381  6.53647419  6.55029381
   0.01631920  3.28801120  3.31147577
   0.05870724  3.33038615  9.75638185
  13.08186046  9.79913632  3.28763168
   0.01631920  9.77527914  9.79875680
   6.52744432  3.26678446  3.28764477
   6.50360023  3.28801120  9.79875680
   6.55029381  9.82198581  3.26478219
   6.52743123  9.79912323  9.81998354
   3.28764477  0.00490754  3.28764477
   3.31147577 13.07044880  9.79875680
   3.26478219  6.53647419  3.26478219
   3.28764477  6.55933677  9.81998354
   9.79875680 13.07044880  3.31147577
   9.75636876 13.02807385  9.75638185
   9.81998354  6.55933677  3.28764477
   9.79875680  6.58316777  9.79875680
   3.31147577  3.28801120  0.01631920
   3.28764477  3.26678446  6.52743123
   3.28764477  9.79912323 13.08186046
   3.26478219  9.82198581  6.55029381
   9.75636876  3.33038615  0.05869415
   9.79875680  3.28801120  6.50360023
   9.79875680  9.77527914  0.01631920
   9.81998354  9.79913632  6.52744432
  11.45092200  1.63584600 11.45092200
   1.65751769  1.63584600  4.90753800
   1.73764797  1.63584600 11.45092200
   1.64751940  8.17923000  4.90753800
   1.65751769  8.17923000 11.45092200
   8.15755831  1.63584600  4.90753800
   8.07742803  1.63584600 11.45092200
   8.16755660  8.17923000  4.90753800
   8.15755831  8.17923000 11.45092200
   1.63385681  4.90554881  1.63385681
   1.66840588  4.94009788  8.14667012
   1.66840588 11.41836212  1.66840588
   1.63385681 11.45291119  8.18121919
   8.14667012  4.94009788  1.66840588
   8.18121919  4.90554881  8.18121919
   8.18121919 11.45291119  1.63385681
   8.14667012 11.41836212  8.14667012
   4.90753800  1.63584600  1.65751769
   4.90753800  1.63584600  8.15755831
   4.90753800  8.17923000  1.64751940
   4.90753800  8.17923000  8.16755660
  11.45092200  1.63584600  1.73764797
  11.45092200  1.63584600  8.07742803
  11.45092200  8.17923000  1.65751769
  11.45092200  8.17923000  8.15755831
   4.90753800  4.91921140  4.90753800
   4.90753800  4.92920969 11.45092200
   4.90753800 11.43924860  4.90753800
   4.90753800 11.42925031 11.45092200
  11.45092200  4.92920969  4.90753800
  11.45092200  5.00933997 11.45092200
  11.45092200 11.42925031  4.90753800
  11.45092200 11.34912003 11.45092200

 Euler angles ALPHA=     0.0000000  BETA=     0.0000000

 transformation matrix from SAXIS to cartesian coordinates
 ---------------------------------------------------------
     1.0000000 m_x    -0.0000000 m_y     0.0000000 m_z
     0.0000000 m_x     1.0000000 m_y     0.0000000 m_z
    -0.0000000 m_x     0.0000000 m_y     1.0000000 m_z

 transformation matrix from cartesian coordinates to SAXIS
 ---------------------------------------------------------
     1.0000000 m_x     0.0000000 m_y    -0.0000000 m_z
    -0.0000000 m_x     1.0000000 m_y     0.0000000 m_z
     0.0000000 m_x     0.0000000 m_y     1.0000000 m_z




--------------------------------------------------------------------------------------------------------


 k-point  1 :   0.0000 0.0000 0.0000  plane waves:   97002
 k-point  2 :   0.5000 0.0000 0.0000  plane waves:   97356
 k-point  3 :   0.0000 0.5000 0.0000  plane waves:   97356
 k-point  4 :   0.5000 0.5000 0.0000  plane waves:   96960
 k-point  5 :   0.0000 0.0000 0.5000  plane waves:   97356
 k-point  6 :   0.5000 0.0000 0.5000  plane waves:   96960
 k-point  7 :   0.0000 0.5000 0.5000  plane waves:   96960
 k-point  8 :   0.5000 0.5000 0.5000  plane waves:   96832

 maximum and minimum number of plane-waves per node :      3116     2976

 maximum number of plane-waves:     97356
 maximum index in each direction: 
   IXMAX=   22   IYMAX=   22   IZMAX=   22
   IXMIN=  -23   IYMIN=  -23   IZMIN=  -23


 parallel 3D FFT for wavefunctions:
    minimum data exchange during FFTs selected (reduces bandwidth)
 parallel 3D FFT for charge:
    minimum data exchange during FFTs selected (reduces bandwidth)


 FFT grid for exact exchange (Hartree Fock) 
  NGX = 48; NGY = 48; NGZ = 48


 Radii for the augmentation spheres in the non-local exchange
 for species   1 augmentation radius   1.444 (default was   1.070)
       energy cutoff for augmentation   1800.0
 for species   2 augmentation radius   1.606 (default was   1.190)
       energy cutoff for augmentation   1800.0

 real space projection operators:
  total allocation   :       9375.20 KBytes
  max/ min on nodes  :        432.62        141.21

 Maximum index for augmentation-charges in exchange           97
  SETUP_FOCK is finished

 total amount of memory used by VASP MPI-rank0   116355. kBytes
=======================================================================

   base      :      30000. kBytes
   nonl-proj :       5136. kBytes
   fftplans  :       6884. kBytes
   grid      :      12386. kBytes
   one-center:        186. kBytes
   HF        :        129. kBytes
   nonlr-proj:       1424. kBytes
   wavefun   :      60210. kBytes

     INWAV:  cpu time    0.0001: real time    0.0000
 Broyden mixing: mesh for mixing (old mesh)
   NGX = 45   NGY = 45   NGZ = 45
  (NGX  =192   NGY  =192   NGZ  =192)
  gives a total of  91125 points

 initial charge density was supplied:
 number of electron     588.0000006 magnetization       0.5418350      0.5418361      0.5418340
 keeping initial charge density in first step


--------------------------------------------------------------------------------------------------------


 Maximum index for augmentation-charges         3093 (set IRDMAX)


--------------------------------------------------------------------------------------------------------


 First call to EWALD:  gamma=   0.135
 Maximum number of real-space cells 3x 3x 3
 Maximum number of reciprocal cells 3x 3x 3

    FEWALD:  cpu time    0.0047: real time    0.0048


--------------------------------------- Iteration      1(   1)  ---------------------------------------


    POTLOK:  cpu time    0.4256: real time    0.4282
    SETDIJ:  cpu time    2.3481: real time    2.3485
    TRIAL :  cpu time   11.1365: real time   11.1414
    CORREC:  cpu time    0.0019: real time    0.0019
    --------------------------------------------
      LOOP:  cpu time   13.9608: real time   14.0340

 eigenvalue-minimisations  : 12800
 total energy-change (2. order) : 0.4574922E+04  (-0.2642245E+05)
 number of electron     588.0000006 magnetization       0.5418350      0.5418361      0.5418340
 augmentation part      588.0000006 magnetization       0.5418350      0.5418361      0.5418340

 Free energy of the ion-electron system (eV)
  ---------------------------------------------------
  alpha Z        PSCENC =      1642.45118531
  Ewald energy   TEWEN  =    -33940.17512420
  -Hartree energ DENC   =    -15676.57257127
  -exchange      EXHF   =         0.00000000
  -V(xc)+E(xc)   XCENC  =      -655.54519498
  PAW double counting   =    120137.09743339  -118048.65931452
  entropy T*S    EENTRO =        -0.02936283
  eigenvalues    EBANDS =      1366.92964925
  atomic energy  EATOM  =     49749.42546357
  ---------------------------------------------------
  free energy    TOTEN  =      4574.92216372 eV

  energy without entropy =     4574.95152655  energy(sigma->0) =     4574.93684513
  exchange ACFDT corr.  =         0.00000000  see jH, gK, PRB 81, 115126


--------------------------------------------------------------------------------------------------------




--------------------------------------- Iteration      1(   2)  ---------------------------------------


    TRIAL :  cpu time   11.7113: real time   11.7122
    CORREC:  cpu time    0.0019: real time    0.0019
    --------------------------------------------
      LOOP:  cpu time   11.7262: real time   11.7467

 eigenvalue-minimisations  : 13744
 total energy-change (2. order) :-0.3470030E+04  (-0.3352976E+04)
 number of electron     588.0000006 magnetization       0.5418350      0.5418361      0.5418340
 augmentation part      588.0000006 magnetization       0.5418350      0.5418361      0.5418340

 Free energy of the ion-electron system (eV)
  ---------------------------------------------------
  alpha Z        PSCENC =      1642.45118531
  Ewald energy   TEWEN  =    -33940.17512420
  -Hartree energ DENC   =    -15676.57257127
  -exchange      EXHF   =         0.00000000
  -V(xc)+E(xc)   XCENC  =      -655.54519498
  PAW double counting   =    120137.09743339  -118048.65931452
  entropy T*S    EENTRO =        -0.00090720
  eigenvalues    EBANDS =     -2103.12879697
  atomic energy  EATOM  =     49749.42546357
  ---------------------------------------------------
  free energy    TOTEN  =      1104.89217312 eV

  energy without entropy =     1104.89308032  energy(sigma->0) =     1104.89262672
  exchange ACFDT corr.  =         0.00000000  see jH, gK, PRB 81, 115126


--------------------------------------------------------------------------------------------------------




--------------------------------------- Iteration      1(   3)  ---------------------------------------


    TRIAL :  cpu time   12.0528: real time   12.0535
    CORREC:  cpu time    0.0022: real time    0.0022
    --------------------------------------------
      LOOP:  cpu time   12.0686: real time   12.0880

 eigenvalue-minimisations  : 14336
 total energy-change (2. order) :-0.2013421E+03  (-0.1990552E+03)
 number of electron     588.0000006 magnetization       0.5418350      0.5418361      0.5418340
 augmentation part      588.0000006 magnetization       0.5418350      0.5418361      0.5418340

 Free energy of the ion-electron system (eV)
  ---------------------------------------------------
  alpha Z        PSCENC =      1642.45118531
  Ewald energy   TEWEN  =    -33940.17512420
  -Hartree energ DENC   =    -15676.57257127
  -exchange      EXHF   =         0.00000000
  -V(xc)+E(xc)   XCENC  =      -655.54519498
  PAW double counting   =    120137.09743339  -118048.65931452
  entropy T*S    EENTRO =        -0.00810470
  eigenvalues    EBANDS =     -2304.46365161
  atomic energy  EATOM  =     49749.42546357
  ---------------------------------------------------
  free energy    TOTEN  =       903.55012099 eV

  energy without entropy =      903.55822569  energy(sigma->0) =      903.55417334
  exchange ACFDT corr.  =         0.00000000  see jH, gK, PRB 81, 115126


--------------------------------------------------------------------------------------------------------




--------------------------------------- Iteration      1(   4)  ---------------------------------------


    TRIAL :  cpu time   13.0301: real time   13.0307
    CORREC:  cpu time    0.0021: real time    0.0021
    --------------------------------------------
      LOOP:  cpu time   13.0461: real time   13.0650

 eigenvalue-minimisations  : 16016
 total energy-change (2. order) :-0.4989186E+01  (-0.4975596E+01)
 number of electron     588.0000006 magnetization       0.5418350      0.5418361      0.5418340
 augmentation part      588.0000006 magnetization       0.5418350      0.5418361      0.5418340

 Free energy of the ion-electron system (eV)
  ---------------------------------------------------
  alpha Z        PSCENC =      1642.45118531
  Ewald energy   TEWEN  =    -33940.17512420
  -Hartree energ DENC   =    -15676.57257127
  -exchange      EXHF   =         0.00000000
  -V(xc)+E(xc)   XCENC  =      -655.54519498
  PAW double counting   =    120137.09743339  -118048.65931452
  entropy T*S    EENTRO =        -0.00897659
  eigenvalues    EBANDS =     -2309.45196557
  atomic energy  EATOM  =     49749.42546357
  ---------------------------------------------------
  free energy    TOTEN  =       898.56093513 eV

  energy without entropy =      898.56991173  energy(sigma->0) =      898.56542343
  exchange ACFDT corr.  =         0.00000000  see jH, gK, PRB 81, 115126


--------------------------------------------------------------------------------------------------------




--------------------------------------- Iteration      1(   5)  ---------------------------------------


    TRIAL :  cpu time   12.6517: real time   12.6531
    CORREC:  cpu time    0.0028: real time    0.0028
    CHARGE:  cpu time    0.8479: real time    0.8480
    --------------------------------------------
      LOOP:  cpu time   13.5150: real time   13.5345

 eigenvalue-minimisations  : 15376
 total energy-change (2. order) :-0.7863550E-01  (-0.7845030E-01)
 number of electron     588.0000007 magnetization       0.0130962      0.0131273      0.0130915
 augmentation part      160.3965867 magnetization       0.0466473      0.0466040      0.0466394

 Free energy of the ion-electron system (eV)
  ---------------------------------------------------
  alpha Z        PSCENC =      1642.45118531
  Ewald energy   TEWEN  =    -33940.17512420
  -Hartree energ DENC   =    -15676.57257127
  -exchange      EXHF   =         0.00000000
  -V(xc)+E(xc)   XCENC  =      -655.54519498
  PAW double counting   =    120137.09743339  -118048.65931452
  entropy T*S    EENTRO =        -0.00899674
  eigenvalues    EBANDS =     -2309.53058092
  atomic energy  EATOM  =     49749.42546357
  ---------------------------------------------------
  free energy    TOTEN  =       898.48229963 eV

  energy without entropy =      898.49129638  energy(sigma->0) =      898.48679800
  exchange ACFDT corr.  =         0.00000000  see jH, gK, PRB 81, 115126


--------------------------------------------------------------------------------------------------------




--------------------------------------- Iteration      1(   6)  ---------------------------------------


    POTLOK:  cpu time    0.3923: real time    0.3923
    SETDIJ:  cpu time    2.2576: real time    2.2577
    TRIAL :  cpu time 1033.9663: real time 1034.0520
    CORREC:  cpu time 1028.0218: real time 1028.1665
    EDDIAG:  cpu time 1020.4086: real time 1020.5531
    CHARGE:  cpu time    0.7772: real time    0.7773
    --------------------------------------------
      LOOP:  cpu time 3085.8384: real time 3086.2335

 eigenvalue-minimisations  :     0
 total energy-change (2. order) :-0.1097692E+04  (-0.1964060E+06)
 number of electron     588.0000006 magnetization       0.0316979      0.0010239     -0.0429412
 augmentation part      155.7098093 magnetization      -0.0329456     -0.0009565      0.0140676

 Free energy of the ion-electron system (eV)
  ---------------------------------------------------
  alpha Z        PSCENC =      1642.45118531
  Ewald energy   TEWEN  =    -33940.17512420
  -Hartree energ DENC   =    -17757.40754261
  -exchange      EXHF   =      1131.37793127
  -V(xc)+E(xc)   XCENC  =      -611.31454016
  PAW double counting   =    112315.94500974  -110335.74742169
  entropy T*S    EENTRO =        -0.00365627
  eigenvalues    EBANDS =     -2452.43057535
  atomic energy  EATOM  =     49749.42546357
  ---------------------------------------------------
  free energy    TOTEN  =      -199.20980714 eV

  energy without entropy =     -199.20615087  energy(sigma->0) =     -199.20797900
  exchange ACFDT corr.  =        -0.00152089  see jH, gK, PRB 81, 115126


--------------------------------------------------------------------------------------------------------


  average scaling for gradient   0.9799


 average (electrostatic) potential at core
  the test charge radii are     1.0698  1.1897
  (the norm of the test charge is              1.0000)
       1 -37.1379       2 -33.4022       3 -33.4801       4 -32.8391       5 -33.7540
       6 -33.1273       7 -33.2017       8 -32.6328       9 -33.5113      10 -36.5492
      11 -32.8466      12 -33.4098      13 -33.2074      14 -33.7361      15 -32.6507
      16 -33.1307      17 -33.0888      18 -33.6471      19 -32.5619      20 -33.0637
      21 -33.6696      22 -35.4742      23 -33.0844      24 -33.6349      25 -33.7128
      26 -33.0689      27 -33.0974      28 -32.5260      29 -36.7183      30 -33.6237
      31 -33.6484      32 -33.0145      33 -35.9457      34 -88.1020      35 -89.6075
      36 -87.3659      37 -88.0947      38 -88.2843      39 -89.6690      40 -87.5663
      41 -88.2802      42 -88.3631      43 -88.3348      44 -88.4057      45 -88.2796
      46 -88.6121      47 -88.4988      48 -88.5260      49 -88.3650      50 -88.3270
      51 -88.2674      52 -87.5914      53 -87.5574      54 -89.6363      55 -89.4223
      56 -88.1151      57 -88.0602      58 -87.5848      59 -88.3123      60 -87.5640
      61 -88.2882      62 -88.1150      63 -89.5890      64 -88.0767      65 -89.5009



 E-fermi :   4.1798     XC(G=0):  -7.2081     alpha+bet : -7.2837


 k-point     1 :       0.0000    0.0000    0.0000
  band No.  band energies     occupation 
      1     -12.6092      1.00000
      2     -12.1715      1.00000
      3     -11.9574      1.00000
      4     -11.8820      1.00000
      5     -11.7828      1.00000
      6     -11.7390      1.00000
      7     -11.6532      1.00000
      8     -11.5824      1.00000
      9     -11.5462      1.00000
     10     -11.4880      1.00000
     11     -11.4531      1.00000
     12     -11.4445      1.00000
     13     -11.3933      1.00000
     14     -11.3202      1.00000
     15     -11.2998      1.00000
     16     -11.2578      1.00000
     17     -11.2098      1.00000
     18     -11.1813      1.00000
     19     -11.1476      1.00000
     20     -11.1072      1.00000
     21     -11.0861      1.00000
     22     -11.0365      1.00000
     23     -10.9961      1.00000
     24     -10.9484      1.00000
     25     -10.9223      1.00000
     26     -10.8888      1.00000
     27     -10.8287      1.00000
     28     -10.8063      1.00000
     29     -10.7857      1.00000
     30     -10.7654      1.00000
     31     -10.7500      1.00000
     32     -10.7013      1.00000
     33     -10.6780      1.00000
     34     -10.6405      1.00000
     35     -10.6029      1.00000
     36     -10.5733      1.00000
     37     -10.5472      1.00000
     38     -10.5285      1.00000
     39     -10.5137      1.00000
     40     -10.4655      1.00000
     41     -10.4556      1.00000
     42     -10.4453      1.00000
     43     -10.4402      1.00000
     44     -10.4236      1.00000
     45     -10.4059      1.00000
     46     -10.3980      1.00000
     47     -10.3633      1.00000
     48     -10.3536      1.00000
     49     -10.3307      1.00000
     50     -10.3222      1.00000
     51     -10.3122      1.00000
     52     -10.3028      1.00000
     53     -10.2924      1.00000
     54     -10.2912      1.00000
     55     -10.2874      1.00000
     56     -10.2770      1.00000
     57     -10.2725      1.00000
     58     -10.2643      1.00000
     59     -10.2502      1.00000
     60     -10.2456      1.00000
     61     -10.2387      1.00000
     62     -10.2301      1.00000
     63     -10.2246      1.00000
     64     -10.2053      1.00000
     65     -10.1935      1.00000
     66     -10.1764      1.00000
     67     -10.1721      1.00000
     68     -10.1584      1.00000
     69     -10.1558      1.00000
     70     -10.1297      1.00000
     71     -10.1265      1.00000
     72     -10.1148      1.00000
     73     -10.1083      1.00000
     74     -10.0999      1.00000
     75     -10.0945      1.00000
     76     -10.0830      1.00000
     77     -10.0804      1.00000
     78     -10.0744      1.00000
     79     -10.0697      1.00000
     80     -10.0450      1.00000
     81     -10.0379      1.00000
     82     -10.0313      1.00000
     83      -9.9965      1.00000
     84      -9.9748      1.00000
     85      -9.9590      1.00000
     86      -9.9205      1.00000
     87      -9.9137      1.00000
     88      -9.8935      1.00000
     89      -9.8843      1.00000
     90      -9.8111      1.00000
     91      -9.7946      1.00000
     92      -9.7110      1.00000
     93      -9.6864      1.00000
     94      -9.6766      1.00000
     95      -9.6635      1.00000
     96      -9.6225      1.00000
     97      -9.6121      1.00000
     98      -9.6097      1.00000
     99      -9.5818      1.00000
    100      -9.5777      1.00000
    101      -9.5696      1.00000
    102      -9.5583      1.00000
    103      -9.5501      1.00000
    104      -9.5404      1.00000
    105      -9.5370      1.00000
    106      -9.5060      1.00000
    107      -9.4964      1.00000
    108      -9.4314      1.00000
    109      -9.4244      1.00000
    110      -9.4006      1.00000
    111      -9.3975      1.00000
    112      -8.9202      1.00000
    113      -8.8863      1.00000
    114      -8.8833      1.00000
    115      -8.8697      1.00000
    116      -8.8571      1.00000
    117      -8.8441      1.00000
    118      -8.8282      1.00000
    119      -8.8214      1.00000
    120      -8.8108      1.00000
    121      -8.7973      1.00000
    122      -8.7912      1.00000
    123      -8.7874      1.00000
    124      -8.7835      1.00000
    125      -8.7740      1.00000
    126      -8.7679      1.00000
    127      -8.7601      1.00000
    128      -8.7522      1.00000
    129      -8.7418      1.00000
    130      -8.7380      1.00000
    131      -8.7363      1.00000
    132      -8.7237      1.00000
    133      -8.7033      1.00000
    134      -8.7001      1.00000
    135      -8.6981      1.00000
    136      -8.6849      1.00000
    137      -8.6778      1.00000
    138      -8.6625      1.00000
    139      -8.6562      1.00000
    140      -8.6439      1.00000
    141      -8.6355      1.00000
    142      -8.6292      1.00000
    143      -8.6236      1.00000
    144      -8.6018      1.00000
    145      -8.5870      1.00000
    146      -8.5730      1.00000
    147      -8.5691      1.00000
    148      -8.5583      1.00000
    149      -8.5515      1.00000
    150      -8.5231      1.00000
    151      -8.5048      1.00000
    152      -8.4897      1.00000
    153      -8.4876      1.00000
    154      -8.4603      1.00000
    155      -8.4574      1.00000
    156      -8.4516      1.00000
    157      -8.4301      1.00000
    158      -8.4054      1.00000
    159      -8.3902      1.00000
    160      -8.3534      1.00000
    161      -8.3503      1.00000
    162      -8.3258      1.00000
    163      -8.3225      1.00000
    164      -8.3163      1.00000
    165      -8.3137      1.00000
    166      -8.3067      1.00000
    167      -8.2916      1.00000
    168      -8.2793      1.00000
    169      -8.2779      1.00000
    170      -8.2630      1.00000
    171      -8.2537      1.00000
    172      -8.2506      1.00000
    173      -8.2495      1.00000
    174      -8.2447      1.00000
    175      -8.2396      1.00000
    176      -8.2358      1.00000
    177      -8.2318      1.00000
    178      -8.2240      1.00000
    179      -8.2196      1.00000
    180      -8.2042      1.00000
    181      -8.1976      1.00000
    182      -8.1955      1.00000
    183      -8.1909      1.00000
    184      -8.1880      1.00000
    185      -8.1864      1.00000
    186      -8.1762      1.00000
    187      -8.1719      1.00000
    188      -8.1677      1.00000
    189      -8.1641      1.00000
    190      -8.1560      1.00000
    191      -8.1532      1.00000
    192      -8.1479      1.00000
    193      -8.1465      1.00000
    194      -8.1436      1.00000
    195      -8.1393      1.00000
    196      -8.1345      1.00000
    197      -8.1321      1.00000
    198      -8.1272      1.00000
    199      -8.1234      1.00000
    200      -8.1169      1.00000
    201      -8.1137      1.00000
    202      -8.1135      1.00000
    203      -8.1102      1.00000
    204      -8.1057      1.00000
    205      -8.1029      1.00000
    206      -8.0996      1.00000
    207      -8.0943      1.00000
    208      -8.0934      1.00000
    209      -8.0898      1.00000
    210      -8.0840      1.00000
    211      -8.0805      1.00000
    212      -8.0714      1.00000
    213      -8.0702      1.00000
    214      -8.0634      1.00000
    215      -8.0620      1.00000
    216      -8.0592      1.00000
    217      -8.0572      1.00000
    218      -8.0564      1.00000
    219      -8.0518      1.00000
    220      -8.0421      1.00000
    221      -8.0403      1.00000
    222      -8.0339      1.00000
    223      -8.0319      1.00000
    224      -8.0216      1.00000
    225      -8.0196      1.00000
    226      -8.0100      1.00000
    227      -8.0087      1.00000
    228      -8.0034      1.00000
    229      -8.0004      1.00000
    230      -7.9926      1.00000
    231      -7.9907      1.00000
    232      -7.9861      1.00000
    233      -7.9836      1.00000
    234      -7.9756      1.00000
    235      -7.9739      1.00000
    236      -7.9591      1.00000
    237      -7.9543      1.00000
    238      -7.9527      1.00000
    239      -7.9463      1.00000
    240      -7.9427      1.00000
    241      -7.9389      1.00000
    242      -7.9351      1.00000
    243      -7.9328      1.00000
    244      -7.9219      1.00000
    245      -7.9196      1.00000
    246      -7.9102      1.00000
    247      -7.9049      1.00000
    248      -7.9032      1.00000
    249      -7.8987      1.00000
    250      -7.8943      1.00000
    251      -7.8914      1.00000
    252      -7.8828      1.00000
    253      -7.8789      1.00000
    254      -7.8757      1.00000
    255      -7.8667      1.00000
    256      -7.8602      1.00000
    257      -7.8587      1.00000
    258      -7.8497      1.00000
    259      -7.8464      1.00000
    260      -7.8375      1.00000
    261      -7.8282      1.00000
    262      -7.8104      1.00000
    263      -7.8089      1.00000
    264      -7.7996      1.00000
    265      -7.7982      1.00000
    266      -7.7854      1.00000
    267      -7.7835      1.00000
    268      -7.7813      1.00000
    269      -7.7793      1.00000
    270      -7.7610      1.00000
    271      -7.7593      1.00000
    272      -7.7544      1.00000
    273      -7.7478      1.00000
    274      -7.7351      1.00000
    275      -7.7319      1.00000
    276      -7.7264      1.00000
    277      -7.7256      1.00000
    278      -7.7134      1.00000
    279      -7.7117      1.00000
    280      -7.7084      1.00000
    281      -7.7029      1.00000
    282      -7.6972      1.00000
    283      -7.6933      1.00000
    284      -7.6718      1.00000
    285      -7.6696      1.00000
    286      -7.6646      1.00000
    287      -7.6561      1.00000
    288      -7.6450      1.00000
    289      -7.6411      1.00000
    290      -7.6310      1.00000
    291      -7.6291      1.00000
    292      -7.6210      1.00000
    293      -7.6187      1.00000
    294      -7.6073      1.00000
    295      -7.6063      1.00000
    296      -7.5902      1.00000
    297      -7.5888      1.00000
    298      -7.5773      1.00000
    299      -7.5754      1.00000
    300      -7.5726      1.00000
    301      -7.5703      1.00000
    302      -7.5619      1.00000
    303      -7.5605      1.00000
    304      -7.5557      1.00000
    305      -7.5521      1.00000
    306      -7.5462      1.00000
    307      -7.5412      1.00000
    308      -7.5316      1.00000
    309      -7.5311      1.00000
    310      -7.5227      1.00000
    311      -7.5207      1.00000
    312      -7.5118      1.00000
    313      -7.5099      1.00000
    314      -7.5082      1.00000
    315      -7.5060      1.00000
    316      -7.5008      1.00000
    317      -7.4984      1.00000
    318      -7.4817      1.00000
    319      -7.4802      1.00000
    320      -7.4739      1.00000
    321      -7.4720      1.00000
    322      -7.4616      1.00000
    323      -7.4574      1.00000
    324      -7.4315      1.00000
    325      -7.4289      1.00000
    326      -7.4222      1.00000
    327      -7.4182      1.00000
    328      -7.4081      1.00000
    329      -7.4039      1.00000
    330      -7.3956      1.00000
    331      -7.3930      1.00000
    332      -7.3872      1.00000
    333      -7.3854      1.00000
    334      -7.3720      1.00000
    335      -7.3701      1.00000
    336      -7.3601      1.00000
    337      -7.3555      1.00000
    338      -7.3470      1.00000
    339      -7.3456      1.00000
    340      -7.3330      1.00000
    341      -7.3281      1.00000
    342      -7.3243      1.00000
    343      -7.3204      1.00000
    344      -7.3073      1.00000
    345      -7.2993      1.00000
    346      -7.2783      1.00000
    347      -7.2767      1.00000
    348      -7.2725      1.00000
    349      -7.2682      1.00000
    350      -7.2521      1.00000
    351      -7.2476      1.00000
    352      -7.2430      1.00000
    353      -7.2349      1.00000
    354      -7.2018      1.00000
    355      -7.1964      1.00000
    356      -7.1855      1.00000
    357      -7.1751      1.00000
    358      -7.1420      1.00000
    359      -7.1377      1.00000
    360      -7.1213      1.00000
    361      -7.1174      1.00000
    362      -7.1043      1.00000
    363      -7.0949      1.00000
    364      -7.0817      1.00000
    365      -7.0803      1.00000
    366      -7.0779      1.00000
    367      -7.0767      1.00000
    368      -7.0368      1.00000
    369      -7.0360      1.00000
    370      -7.0242      1.00000
    371      -7.0208      1.00000
    372      -7.0095      1.00000
    373      -7.0084      1.00000
    374      -7.0034      1.00000
    375      -6.9981      1.00000
    376      -6.9853      1.00000
    377      -6.9836      1.00000
    378      -6.9445      1.00000
    379      -6.9427      1.00000
    380      -6.8851      1.00000
    381      -6.8837      1.00000
    382      -6.8096      1.00000
    383      -6.8077      1.00000
    384      -6.7961      1.00000
    385      -6.7934      1.00000
    386      -6.7754      1.00000
    387      -6.7746      1.00000
    388      -6.6834      1.00000
    389      -6.6803      1.00000
    390      -6.6278      1.00000
    391      -6.6254      1.00000
    392      -4.7613      1.00000
    393      -4.7413      1.00000
    394      -4.0216      1.00000
    395      -4.0134      1.00000
    396      -3.9022      1.00000
    397      -3.8965      1.00000
    398      -3.7496      1.00000
    399      -3.7488      1.00000
    400      -3.2895      1.00000
    401      -3.2887      1.00000
    402      -3.2758      1.00000
    403      -3.2728      1.00000
    404      -3.2245      1.00000
    405      -3.2218      1.00000
    406      -3.0370      1.00000
    407      -3.0331      1.00000
    408      -2.9281      1.00000
    409      -2.9223      1.00000
    410      -2.9004      1.00000
    411      -2.8956      1.00000
    412      -2.7277      1.00000
    413      -2.7264      1.00000
    414      -2.7025      1.00000
    415      -2.6992      1.00000
    416      -2.6691      1.00000
    417      -2.6651      1.00000
    418      -2.5430      1.00000
    419      -2.5403      1.00000
    420      -2.5203      1.00000
    421      -2.5189      1.00000
    422      -2.4655      1.00000
    423      -2.4620      1.00000
    424      -2.4481      1.00000
    425      -2.4458      1.00000
    426      -2.3575      1.00000
    427      -2.3559      1.00000
    428      -2.3439      1.00000
    429      -2.3403      1.00000
    430      -2.3291      1.00000
    431      -2.3259      1.00000
    432      -2.3082      1.00000
    433      -2.3069      1.00000
    434      -2.2668      1.00000
    435      -2.2613      1.00000
    436      -2.1132      1.00000
    437      -2.1122      1.00000
    438      -2.0936      1.00000
    439      -2.0907      1.00000
    440      -2.0433      1.00000
    441      -2.0424      1.00000
    442      -1.7078      1.00000
    443      -1.7009      1.00000
    444      -1.6818      1.00000
    445      -1.6790      1.00000
    446      -1.5488      1.00000
    447      -1.5457      1.00000
    448      -1.5058      1.00000
    449      -1.5015      1.00000
    450      -1.4768      1.00000
    451      -1.4744      1.00000
    452      -1.3658      1.00000
    453      -1.3646      1.00000
    454      -1.3303      1.00000
    455      -1.3272      1.00000
    456      -1.3038      1.00000
    457      -1.3009      1.00000
    458      -1.2935      1.00000
    459      -1.2918      1.00000
    460      -1.2715      1.00000
    461      -1.2674      1.00000
    462      -1.2432      1.00000
    463      -1.2388      1.00000
    464      -1.2277      1.00000
    465      -1.2234      1.00000
    466      -1.2115      1.00000
    467      -1.2088      1.00000
    468      -0.9759      1.00000
    469      -0.9728      1.00000
    470      -0.9151      1.00000
    471      -0.9096      1.00000
    472      -0.8898      1.00000
    473      -0.8858      1.00000
    474      -0.8672      1.00000
    475      -0.8625      1.00000
    476      -0.8040      1.00000
    477      -0.7998      1.00000
    478      -0.7970      1.00000
    479      -0.7892      1.00000
    480      -0.7859      1.00000
    481      -0.7840      1.00000
    482      -0.7707      1.00000
    483      -0.7654      1.00000
    484      -0.7490      1.00000
    485      -0.7418      1.00000
    486      -0.7002      1.00000
    487      -0.6957      1.00000
    488      -0.6885      1.00000
    489      -0.6833      1.00000
    490      -0.6094      1.00000
    491      -0.6078      1.00000
    492      -0.5977      1.00000
    493      -0.5938      1.00000
    494      -0.5752      1.00000
    495      -0.5723      1.00000
    496      -0.4723      1.00000
    497      -0.4701      1.00000
    498      -0.4542      1.00000
    499      -0.4508      1.00000
    500      -0.4143      1.00000
    501      -0.4100      1.00000
    502      -0.3980      1.00000
    503      -0.3951      1.00000
    504      -0.3695      1.00000
    505      -0.3673      1.00000
    506      -0.3466      1.00000
    507      -0.3393      1.00000
    508      -0.1390      1.00000
    509      -0.1346      1.00000
    510      -0.1275      1.00000
    511      -0.1245      1.00000
    512      -0.0095      1.00000
    513      -0.0057      1.00000
    514       0.1497      1.00000
    515       0.1530      1.00000
    516       0.1742      1.00000
    517       0.1770      1.00000
    518       0.1854      1.00000
    519       0.1900      1.00000
    520       0.2171      1.00000
    521       0.2215      1.00000
    522       0.2323      1.00000
    523       0.2350      1.00000
    524       0.2378      1.00000
    525       0.2407      1.00000
    526       0.2535      1.00000
    527       0.2569      1.00000
    528       0.2704      1.00000
    529       0.2729      1.00000
    530       0.3535      1.00000
    531       0.3562      1.00000
    532       0.3609      1.00000
    533       0.3630      1.00000
    534       0.4024      1.00000
    535       0.4067      1.00000
    536       0.4265      1.00000
    537       0.4287      1.00000
    538       0.4989      1.00000
    539       0.5018      1.00000
    540       0.5087      1.00000
    541       0.5102      1.00000
    542       0.5978      1.00000
    543       0.6011      1.00000
    544       0.6264      1.00000
    545       0.6277      1.00000
    546       0.6637      1.00000
    547       0.6649      1.00000
    548       0.6766      1.00000
    549       0.6772      1.00000
    550       0.7319      1.00000
    551       0.7357      1.00000
    552       0.7688      1.00000
    553       0.7731      1.00000
    554       0.7813      1.00000
    555       0.7852      1.00000
    556       0.8186      1.00000
    557       0.8290      1.00000
    558       0.8346      1.00000
    559       0.8380      1.00000
    560       0.8535      1.00000
    561       0.8553      1.00000
    562       0.8784      1.00000
    563       0.8808      1.00000
    564       0.9042      1.00000
    565       0.9093      1.00000
    566       0.9251      1.00000
    567       0.9293      1.00000
    568       1.0234      1.00000
    569       1.0267      1.00000
    570       1.0446      1.00000
    571       1.0474      1.00000
    572       1.1950      1.00000
    573       1.1995      1.00000
    574       1.2088      1.00000
    575       1.2094      1.00000
    576       1.3614      1.00000
    577       1.3656      1.00000
    578       1.3734      1.00000
    579       1.3757      1.00000
    580       1.8487      1.00000
    581       1.8599      1.00000
    582       1.8605      1.00000
    583       1.8725      1.00000
    584       1.8790      1.00000
    585       1.9294      1.00000
    586       5.8477      1.00000
    587      12.7322      1.00000
    588       2.7430      0.53224
    589       3.5623      0.47765
    590       3.5740      0.00000
    591       3.5929      0.00000
    592       3.6010      0.00000
    593       3.6032      0.00000
    594       3.6134      0.00000
    595       3.9228      0.00000
    596       3.9303      0.00000
    597       4.5080      0.00000
    598       4.5210      0.00000
    599       4.5414      0.00000
    600       4.5523      0.00000
    601       4.6266      0.00000
    602       4.6353      0.00000
    603       4.7844      0.00000
    604       4.7847      0.00000
    605       4.7888      0.00000
    606       4.7923      0.00000
    607       4.8069      0.00000
    608       4.8102      0.00000
    609       4.8274      0.00000
    610       4.8797      0.00000
    611       4.9454      0.00000
    612       4.9502      0.00000
    613       4.9620      0.00000
    614       4.9634      0.00000
    615       5.1801      0.00000
    616       5.2205      0.00000
    617       5.3100      0.00000
    618       5.3104      0.00000
    619       5.3217      0.00000
    620       5.3218      0.00000
    621       5.3236      0.00000
    622       5.3304      0.00000
    623       5.3408      0.00000
    624       5.3412      0.00000
    625       5.3533      0.00000
    626       5.3535      0.00000
    627       5.3705      0.00000
    628       5.3713      0.00000
    629       5.3799      0.00000
    630       5.3857      0.00000
    631       5.4075      0.00000
    632       5.4096      0.00000
    633       5.4139      0.00000
    634       5.4143      0.00000
    635       5.4162      0.00000
    636       5.4201      0.00000
    637       5.4210      0.00000
    638       5.4254      0.00000
    639       5.4288      0.00000
    640       5.4433      0.00000
    641       5.4437      0.00000
    642       5.4442      0.00000
    643       5.4444      0.00000
    644       5.4502      0.00000
    645       5.4540      0.00000
    646       5.4568      0.00000
    647       5.4597      0.00000
    648       5.4669      0.00000
    649       5.4776      0.00000
    650       5.4783      0.00000
    651       5.5430      0.00000
    652       5.5525      0.00000
    653       5.5615      0.00000
    654       5.5693      0.00000
    655       6.1266      0.00000
    656       6.1395      0.00000
    657       6.3211      0.00000
    658       6.3261      0.00000
    659       6.3429      0.00000
    660       6.3442      0.00000
    661       6.3604      0.00000
    662       6.3752      0.00000
    663       6.3960      0.00000
    664       6.4068      0.00000
    665       6.4753      0.00000
    666       6.4821      0.00000
    667       6.4849      0.00000
    668       6.4869      0.00000
    669       6.5194      0.00000
    670       6.5234      0.00000
    671       6.6448      0.00000
    672       6.6458      0.00000
    673       6.8265      0.00000
    674       6.8298      0.00000
    675       6.8506      0.00000
    676       6.8545      0.00000
    677       6.8598      0.00000
    678       6.8610      0.00000
    679       6.8618      0.00000
    680       6.8691      0.00000
    681       6.8696      0.00000
    682       6.8720      0.00000
    683       6.8809      0.00000
    684       6.8925      0.00000
    685       6.8935      0.00000
    686       6.9138      0.00000
    687       6.9384      0.00000
    688       6.9557      0.00000
    689       6.9558      0.00000
    690       6.9608      0.00000
    691       7.3204      0.00000
    692       7.3306      0.00000
    693       7.3326      0.00000
    694       7.3333      0.00000
    695       7.3362      0.00000
    696       7.3375      0.00000
    697       7.3382      0.00000
    698       7.3435      0.00000
    699       7.3509      0.00000
    700       7.3644      0.00000
    701       7.4712      0.00000
    702       7.4835      0.00000
    703       7.4944      0.00000
    704       7.5009      0.00000
    705       7.5208      0.00000
    706       7.5872      0.00000
    707       7.5873      0.00000
    708       7.5993      0.00000
    709       7.6106      0.00000
    710       7.6137      0.00000
    711       7.6208      0.00000
    712       7.6314      0.00000
    713       7.6330      0.00000
    714       7.6333      0.00000
    715       7.6948      0.00000
    716       7.6968      0.00000
    717       7.6990      0.00000
    718       7.7033      0.00000
    719       7.7104      0.00000
    720       7.7184      0.00000
    721       7.7348      0.00000
    722       7.7352      0.00000
    723       7.7413      0.00000
    724       7.7482      0.00000
    725       7.7561      0.00000
    726       7.7660      0.00000
    727       7.7724      0.00000
    728       7.7816      0.00000
    729       7.7819      0.00000
    730       7.7980      0.00000
    731       7.7995      0.00000
    732       7.8002      0.00000
    733       7.8015      0.00000
    734       7.8431      0.00000
    735       7.8543      0.00000
    736       7.8672      0.00000
    737       7.8772      0.00000
    738       7.8797      0.00000
    739       7.8842      0.00000
    740       7.8854      0.00000
    741       7.8882      0.00000
    742       7.8901      0.00000
    743       7.8940      0.00000
    744       7.8967      0.00000
    745       7.9088      0.00000
    746       7.9154      0.00000
    747       7.9261      0.00000
    748       7.9449      0.00000
    749       7.9885      0.00000
    750       8.0022      0.00000
    751       8.0104      0.00000
    752       8.0483      0.00000
    753       8.1036      0.00000
    754       8.1073      0.00000
    755       8.1311      0.00000
    756       8.1447      0.00000
    757       8.1860      0.00000
    758       8.2214      0.00000
    759       8.2287      0.00000
    760       8.2362      0.00000
    761       8.2377      0.00000
    762       8.2422      0.00000
    763       8.2431      0.00000
    764       8.2505      0.00000
    765       8.2568      0.00000
    766       8.2671      0.00000
    767       8.2708      0.00000
    768       8.2768      0.00000
    769       8.2789      0.00000
    770       8.2798      0.00000
    771       8.2965      0.00000
    772       8.3024      0.00000
    773       8.3150      0.00000
    774       8.3266      0.00000
    775       8.3362      0.00000
    776       8.3433      0.00000
    777       8.3644      0.00000
    778       8.3807      0.00000
    779       8.4013      0.00000
    780       8.4315      0.00000
    781       8.4794      0.00000
    782       8.5543      0.00000
    783      39.5318      0.00000
    784     407.1621      0.00000

 k-point     2 :       0.5000    0.0000    0.0000
  band No.  band energies     occupation 
      1     -19.6212      1.00000
      2     -14.6132      1.00000
      3     -14.1691      1.00000
      4     -12.9622      1.00000
      5     -12.0590      1.00000
      6     -11.8185      1.00000
      7     -11.7466      1.00000
      8     -11.6399      1.00000
      9     -11.5027      1.00000
     10     -11.4549      1.00000
     11     -11.4329      1.00000
     12     -11.4197      1.00000
     13     -11.3216      1.00000
     14     -11.3121      1.00000
     15     -11.2559      1.00000
     16     -11.2033      1.00000
     17     -11.1591      1.00000
     18     -11.1025      1.00000
     19     -11.0955      1.00000
     20     -11.0569      1.00000
     21     -11.0364      1.00000
     22     -10.9491      1.00000
     23     -10.9299      1.00000
     24     -10.8815      1.00000
     25     -10.8547      1.00000
     26     -10.8357      1.00000
     27     -10.7896      1.00000
     28     -10.7666      1.00000
     29     -10.7229      1.00000
     30     -10.6984      1.00000
     31     -10.6235      1.00000
     32     -10.6167      1.00000
     33     -10.5934      1.00000
     34     -10.5620      1.00000
     35     -10.5479      1.00000
     36     -10.5262      1.00000
     37     -10.5008      1.00000
     38     -10.4605      1.00000
     39     -10.4515      1.00000
     40     -10.4385      1.00000
     41     -10.4275      1.00000
     42     -10.4138      1.00000
     43     -10.4101      1.00000
     44     -10.3737      1.00000
     45     -10.3612      1.00000
     46     -10.3322      1.00000
     47     -10.3235      1.00000
     48     -10.3185      1.00000
     49     -10.3069      1.00000
     50     -10.3029      1.00000
     51     -10.2946      1.00000
     52     -10.2925      1.00000
     53     -10.2879      1.00000
     54     -10.2821      1.00000
     55     -10.2775      1.00000
     56     -10.2694      1.00000
     57     -10.2634      1.00000
     58     -10.2499      1.00000
     59     -10.2467      1.00000
     60     -10.2317      1.00000
     61     -10.2266      1.00000
     62     -10.2126      1.00000
     63     -10.2013      1.00000
     64     -10.1801      1.00000
     65     -10.1758      1.00000
     66     -10.1655      1.00000
     67     -10.1628      1.00000
     68     -10.1478      1.00000
     69     -10.1358      1.00000
     70     -10.1326      1.00000
     71     -10.1257      1.00000
     72     -10.1048      1.00000
     73     -10.0974      1.00000
     74     -10.0937      1.00000
     75     -10.0896      1.00000
     76     -10.0835      1.00000
     77     -10.0775      1.00000
     78     -10.0665      1.00000
     79     -10.0613      1.00000
     80     -10.0448      1.00000
     81     -10.0246      1.00000
     82     -10.0183      1.00000
     83      -9.9732      1.00000
     84      -9.9678      1.00000
     85      -9.9295      1.00000
     86      -9.9142      1.00000
     87      -9.8973      1.00000
     88      -9.8833      1.00000
     89      -9.8072      1.00000
     90      -9.7908      1.00000
     91      -9.7230      1.00000
     92      -9.6872      1.00000
     93      -9.6714      1.00000
     94      -9.6189      1.00000
     95      -9.6153      1.00000
     96      -9.6094      1.00000
     97      -9.6040      1.00000
[...]
 l=   3
     0.0000000     0.0000000     0.0000000     0.0000000     0.0000000     0.0000000     0.0000000
     0.0000000     0.0000000     0.0000000     0.0000000     0.0000000     0.0000000     0.0000000
     0.0000000     0.0000000     0.0000000     0.0000000     0.0000000     0.0000000     0.0000000
     0.0000000     0.0000000     0.0000000     0.0000000     0.0000000     0.0000000     0.0000000
     0.0000000     0.0000000     0.0000000     0.0000000     0.0000000     0.0000000     0.0000000
     0.0000000     0.0000000     0.0000000     0.0000000     0.0000000     0.0000000     0.0000000
     0.0000000     0.0000000     0.0000000     0.0000000     0.0000000     0.0000000     0.0000000

 Ion:   61  E_soc:     -0.1769798
 l=   1
     0.0000000    -0.0294055    -0.0294352
    -0.0294055     0.0000000    -0.0294402
    -0.0294352    -0.0294402     0.0000000
 l=   2
     0.0000000    -0.0000276     0.0000000    -0.0000274    -0.0000433
    -0.0000276     0.0000000    -0.0000316    -0.0000282    -0.0000104
     0.0000000    -0.0000316     0.0000000    -0.0000304     0.0000000
    -0.0000274    -0.0000282    -0.0000304     0.0000000    -0.0000101
    -0.0000433    -0.0000104     0.0000000    -0.0000101     0.0000000
 l=   3
     0.0000000     0.0000000     0.0000000     0.0000000     0.0000000     0.0000000     0.0000000
     0.0000000     0.0000000     0.0000000     0.0000000     0.0000000     0.0000000     0.0000000
     0.0000000     0.0000000     0.0000000     0.0000000     0.0000000     0.0000000     0.0000000
     0.0000000     0.0000000     0.0000000     0.0000000     0.0000000     0.0000000     0.0000000
     0.0000000     0.0000000     0.0000000     0.0000000     0.0000000     0.0000000     0.0000000
     0.0000000     0.0000000     0.0000000     0.0000000     0.0000000     0.0000000     0.0000000
     0.0000000     0.0000000     0.0000000     0.0000000     0.0000000     0.0000000     0.0000000

 Ion:   62  E_soc:     -0.1769826
 l=   1
     0.0000000    -0.0294512    -0.0294393
    -0.0294512     0.0000000    -0.0293931
    -0.0294393    -0.0293931     0.0000000
 l=   2
     0.0000000    -0.0000270     0.0000000    -0.0000283    -0.0000421
    -0.0000270     0.0000000    -0.0000281    -0.0000269    -0.0000144
     0.0000000    -0.0000281     0.0000000    -0.0000307     0.0000000
    -0.0000283    -0.0000269    -0.0000307     0.0000000    -0.0000103
    -0.0000421    -0.0000144     0.0000000    -0.0000103     0.0000000
 l=   3
     0.0000000     0.0000000     0.0000000     0.0000000     0.0000000     0.0000000     0.0000000
     0.0000000     0.0000000     0.0000000     0.0000000     0.0000000     0.0000000     0.0000000
     0.0000000     0.0000000     0.0000000     0.0000000     0.0000000     0.0000000     0.0000000
     0.0000000     0.0000000     0.0000000     0.0000000     0.0000000     0.0000000     0.0000000
     0.0000000     0.0000000     0.0000000     0.0000000     0.0000000     0.0000000     0.0000000
     0.0000000     0.0000000     0.0000000     0.0000000     0.0000000     0.0000000     0.0000000
     0.0000000     0.0000000     0.0000000     0.0000000     0.0000000     0.0000000     0.0000000

 Ion:   63  E_soc:     -0.1793157
 l=   1
     0.0000000    -0.0299436    -0.0297380
    -0.0299436     0.0000000    -0.0297778
    -0.0297380    -0.0297778     0.0000000
 l=   2
     0.0000000    -0.0000233     0.0000000    -0.0000245    -0.0000381
    -0.0000233     0.0000000    -0.0000330    -0.0000241    -0.0000188
     0.0000000    -0.0000330     0.0000000    -0.0000270     0.0000000
    -0.0000245    -0.0000241    -0.0000270     0.0000000    -0.0000098
    -0.0000381    -0.0000188     0.0000000    -0.0000098     0.0000000
 l=   3
     0.0000000     0.0000000     0.0000000     0.0000000     0.0000000     0.0000000     0.0000000
     0.0000000     0.0000000     0.0000000     0.0000000     0.0000000     0.0000000     0.0000000
     0.0000000     0.0000000     0.0000000     0.0000000     0.0000000     0.0000000     0.0000000
     0.0000000     0.0000000     0.0000000     0.0000000     0.0000000     0.0000000     0.0000000
     0.0000000     0.0000000     0.0000000     0.0000000     0.0000000     0.0000000     0.0000000
     0.0000000     0.0000000     0.0000000     0.0000000     0.0000000     0.0000000     0.0000000
     0.0000000     0.0000000     0.0000000     0.0000000     0.0000000     0.0000000     0.0000000

 Ion:   64  E_soc:     -0.1770015
 l=   1
     0.0000000    -0.0294501    -0.0294357
    -0.0294501     0.0000000    -0.0294073
    -0.0294357    -0.0294073     0.0000000
 l=   2
     0.0000000    -0.0000270     0.0000000    -0.0000282    -0.0000420
    -0.0000270     0.0000000    -0.0000283    -0.0000270    -0.0000143
     0.0000000    -0.0000283     0.0000000    -0.0000305     0.0000000
    -0.0000282    -0.0000270    -0.0000305     0.0000000    -0.0000103
    -0.0000420    -0.0000143     0.0000000    -0.0000103     0.0000000
 l=   3
     0.0000000     0.0000000     0.0000000     0.0000000     0.0000000     0.0000000     0.0000000
     0.0000000     0.0000000     0.0000000     0.0000000     0.0000000     0.0000000     0.0000000
     0.0000000     0.0000000     0.0000000     0.0000000     0.0000000     0.0000000     0.0000000
     0.0000000     0.0000000     0.0000000     0.0000000     0.0000000     0.0000000     0.0000000
     0.0000000     0.0000000     0.0000000     0.0000000     0.0000000     0.0000000     0.0000000
     0.0000000     0.0000000     0.0000000     0.0000000     0.0000000     0.0000000     0.0000000
     0.0000000     0.0000000     0.0000000     0.0000000     0.0000000     0.0000000     0.0000000

 Ion:   65  E_soc:     -0.1790925
 l=   1
     0.0000000    -0.0298956    -0.0296737
    -0.0298956     0.0000000    -0.0297788
    -0.0296737    -0.0297788     0.0000000
 l=   2
     0.0000000    -0.0000234     0.0000000    -0.0000248    -0.0000374
    -0.0000234     0.0000000    -0.0000328    -0.0000234    -0.0000194
     0.0000000    -0.0000328     0.0000000    -0.0000272     0.0000000
    -0.0000248    -0.0000234    -0.0000272     0.0000000    -0.0000097
    -0.0000374    -0.0000194     0.0000000    -0.0000097     0.0000000
 l=   3
     0.0000000     0.0000000     0.0000000     0.0000000     0.0000000     0.0000000     0.0000000
     0.0000000     0.0000000     0.0000000     0.0000000     0.0000000     0.0000000     0.0000000
     0.0000000     0.0000000     0.0000000     0.0000000     0.0000000     0.0000000     0.0000000
     0.0000000     0.0000000     0.0000000     0.0000000     0.0000000     0.0000000     0.0000000
     0.0000000     0.0000000     0.0000000     0.0000000     0.0000000     0.0000000     0.0000000
     0.0000000     0.0000000     0.0000000     0.0000000     0.0000000     0.0000000     0.0000000
     0.0000000     0.0000000     0.0000000     0.0000000     0.0000000     0.0000000     0.0000000



 total charge     

# of ion       s       p       d       tot
------------------------------------------
    1        0.539   0.351   9.428  10.318
    2        0.525   0.350   9.540  10.415
    3        0.526   0.350   9.540  10.416
    4        0.525   0.351   9.540  10.416
    5        0.525   0.350   9.541  10.415
    6        0.524   0.351   9.541  10.416
    7        0.524   0.351   9.541  10.416
    8        0.523   0.347   9.542  10.412
    9        0.526   0.350   9.540  10.415
   10        0.538   0.351   9.484  10.373
   11        0.525   0.351   9.540  10.416
   12        0.525   0.350   9.540  10.415
   13        0.524   0.351   9.541  10.416
   14        0.525   0.349   9.541  10.415
   15        0.523   0.347   9.542  10.411
   16        0.524   0.351   9.541  10.416
   17        0.524   0.350   9.541  10.415
   18        0.524   0.349   9.541  10.414
   19        0.522   0.347   9.541  10.411
   20        0.524   0.351   9.541  10.415
   21        0.525   0.350   9.541  10.415
   22        0.537   0.350   9.508  10.396
   23        0.525   0.351   9.541  10.416
   24        0.525   0.350   9.541  10.415
   25        0.525   0.349   9.540  10.414
   26        0.524   0.351   9.541  10.416
   27        0.524   0.351   9.541  10.416
   28        0.523   0.347   9.542  10.411
   29        0.538   0.351   9.463  10.352
   30        0.525   0.350   9.541  10.416
   31        0.525   0.350   9.541  10.416
   32        0.525   0.351   9.541  10.417
   33        0.790   0.243   9.495  10.528
   34        1.304   2.000   0.023   3.327
   35        1.313   1.977   0.025   3.315
   36        1.304   1.996   0.023   3.323
   37        1.304   2.000   0.023   3.327
   38        1.304   2.000   0.023   3.327
   39        1.315   1.977   0.025   3.317
   40        1.304   1.996   0.023   3.323
   41        1.304   2.000   0.023   3.327
   42        1.303   1.994   0.022   3.320
   43        1.305   2.002   0.024   3.331
   44        1.305   2.001   0.024   3.331
   45        1.304   1.994   0.022   3.320
   46        1.304   2.002   0.024   3.329
   47        1.304   1.994   0.022   3.320
   48        1.304   1.994   0.022   3.320
   49        1.307   2.002   0.024   3.332
   50        1.304   2.000   0.023   3.327
   51        1.304   2.000   0.023   3.327
   52        1.304   1.996   0.023   3.323
   53        1.304   1.996   0.023   3.323
   54        1.315   1.977   0.025   3.317
   55        1.315   1.977   0.025   3.318
   56        1.304   2.000   0.023   3.328
   57        1.304   2.000   0.023   3.328
   58        1.304   1.996   0.023   3.323
   59        1.304   2.000   0.023   3.327
   60        1.304   1.996   0.023   3.323
   61        1.304   2.000   0.023   3.327
   62        1.304   2.000   0.023   3.328
   63        1.315   1.977   0.025   3.317
   64        1.304   2.000   0.023   3.327
   65        1.316   1.977   0.025   3.318
--------------------------------------------------
tot         59.427  75.262 315.272 449.961



 magnetization (x)

# of ion       s       p       d       tot
------------------------------------------
    1        0.001  -0.001  -0.038  -0.038
    2       -0.000  -0.001   0.001   0.000
    3        0.000  -0.001   0.000  -0.000
    4       -0.000  -0.001   0.000  -0.001
    5       -0.001  -0.001   0.001  -0.001
    6       -0.001  -0.001   0.001  -0.001
    7       -0.001  -0.001   0.000  -0.002
    8       -0.001  -0.001   0.000  -0.001
    9        0.000  -0.001   0.001   0.000
   10        0.001  -0.001  -0.014  -0.014
   11       -0.000  -0.001   0.000  -0.001
   12        0.000  -0.001   0.001   0.000
   13       -0.001  -0.001   0.000  -0.002
   14       -0.001  -0.001   0.001  -0.001
   15       -0.001  -0.001   0.000  -0.002
   16       -0.001  -0.001   0.000  -0.002
   17       -0.001  -0.001   0.000  -0.002
   18       -0.001  -0.001   0.000  -0.001
   19       -0.001  -0.001   0.000  -0.002
   20       -0.001  -0.001   0.000  -0.002
   21       -0.000  -0.001   0.000  -0.001
   22        0.001  -0.001  -0.001  -0.001
   23       -0.001  -0.001   0.000  -0.001
   24       -0.000  -0.001   0.000  -0.001
   25       -0.001  -0.001   0.001  -0.001
   26       -0.001  -0.001   0.000  -0.002
   27       -0.001  -0.001   0.000  -0.002
   28       -0.001  -0.001   0.000  -0.002
   29        0.000  -0.001  -0.027  -0.027
   30       -0.000  -0.001   0.001  -0.000
   31       -0.000  -0.001   0.001  -0.000
   32       -0.001  -0.001   0.000  -0.001
   33       -0.001   0.004  -0.006  -0.003
   34        0.001   0.005  -0.000   0.006
   35        0.001   0.007   0.000   0.008
   36        0.001   0.005  -0.000   0.006
   37        0.001   0.005  -0.000   0.006
   38        0.001   0.005  -0.000   0.006
   39        0.002   0.007   0.000   0.008
   40        0.001   0.005  -0.000   0.006
   41        0.001   0.005  -0.000   0.006
   42        0.001   0.005  -0.000   0.005
   43        0.000   0.005  -0.000   0.005
   44        0.000   0.005   0.000   0.005
   45        0.001   0.005  -0.000   0.005
   46       -0.002   0.005  -0.000   0.003
   47        0.001   0.005  -0.000   0.005
   48        0.001   0.005  -0.000   0.005
   49        0.000   0.005  -0.000   0.005
   50        0.001   0.005  -0.000   0.006
   51        0.001   0.005  -0.000   0.006
   52        0.001   0.005  -0.000   0.006
   53        0.001   0.005  -0.000   0.006
   54        0.002   0.006   0.000   0.009
   55        0.003   0.007   0.000   0.010
   56        0.002   0.005   0.000   0.007
   57        0.002   0.005   0.000   0.007
   58        0.001   0.005  -0.000   0.006
   59        0.001   0.005  -0.000   0.006
   60        0.001   0.005  -0.000   0.006
   61        0.001   0.005  -0.000   0.006
   62        0.002   0.005   0.000   0.007
   63        0.002   0.006   0.000   0.008
   64        0.002   0.005   0.000   0.006
   65        0.003   0.007   0.000   0.010
--------------------------------------------------
tot          0.018   0.147  -0.074   0.092



 magnetization (y)

# of ion       s       p       d       tot
------------------------------------------
    1       -0.000  -0.001  -0.016  -0.017
    2       -0.001  -0.001   0.000  -0.002
    3       -0.001  -0.001   0.000  -0.002
    4       -0.001  -0.001  -0.000  -0.002
    5       -0.001  -0.001   0.001  -0.001
    6       -0.001  -0.001   0.000  -0.001
    7       -0.001  -0.001   0.000  -0.002
    8       -0.001  -0.001   0.000  -0.002
    9       -0.001  -0.001   0.000  -0.002
   10       -0.001  -0.001  -0.007  -0.009
   11       -0.001  -0.001   0.000  -0.001
   12       -0.001  -0.001   0.000  -0.002
   13       -0.001  -0.001   0.000  -0.001
   14       -0.001  -0.001   0.000  -0.001
   15       -0.001  -0.001   0.000  -0.002
   16       -0.001  -0.001   0.000  -0.001
   17       -0.001  -0.001   0.000  -0.002
   18       -0.001  -0.001   0.000  -0.002
   19       -0.001  -0.001   0.000  -0.002
   20       -0.001  -0.001   0.000  -0.002
   21       -0.001  -0.001   0.000  -0.002
   22       -0.001  -0.001  -0.004  -0.006
   23       -0.001  -0.001   0.000  -0.002
   24       -0.001  -0.001   0.000  -0.002
   25       -0.001  -0.001   0.001  -0.001
   26       -0.001  -0.001   0.000  -0.001
   27       -0.001  -0.001   0.000  -0.001
   28       -0.001  -0.001   0.000  -0.002
   29       -0.000  -0.001  -0.015  -0.016
   30       -0.001  -0.001   0.000  -0.001
   31       -0.001  -0.001   0.000  -0.001
   32       -0.001  -0.001   0.000  -0.001
   33        0.005   0.001  -0.006  -0.000
   34        0.001   0.005  -0.000   0.006
   35        0.001   0.005   0.000   0.006
   36        0.001   0.005  -0.000   0.006
   37        0.001   0.005  -0.000   0.006
   38        0.001   0.005  -0.000   0.006
   39        0.001   0.005  -0.000   0.007
   40        0.001   0.005  -0.000   0.006
   41        0.001   0.005  -0.000   0.006
   42        0.001   0.005  -0.000   0.006
   43        0.001   0.005  -0.000   0.005
   44        0.001   0.005   0.000   0.006
   45        0.001   0.004  -0.000   0.005
   46        0.000   0.005  -0.000   0.005
   47        0.001   0.005  -0.000   0.005
   48        0.001   0.005  -0.000   0.006
   49        0.001   0.005  -0.000   0.006
   50        0.001   0.005  -0.000   0.006
   51        0.001   0.005  -0.000   0.006
   52        0.001   0.005  -0.000   0.006
   53        0.001   0.005  -0.000   0.006
   54        0.001   0.005   0.000   0.006
   55        0.001   0.005  -0.000   0.006
   56        0.001   0.005  -0.000   0.006
   57        0.001   0.005  -0.000   0.006
   58        0.001   0.005  -0.000   0.006
   59        0.001   0.005  -0.000   0.006
   60        0.001   0.005  -0.000   0.006
   61        0.001   0.005  -0.000   0.006
   62        0.001   0.005  -0.000   0.006
   63        0.001   0.005  -0.000   0.007
   64        0.001   0.005  -0.000   0.006
   65        0.001   0.005  -0.000   0.007
--------------------------------------------------
tot          0.012   0.122  -0.040   0.094



 magnetization (z)

# of ion       s       p       d       tot
------------------------------------------
    1       -0.001  -0.001  -0.003  -0.006
    2       -0.001  -0.001   0.000  -0.002
    3       -0.001  -0.001   0.000  -0.001
    4       -0.001  -0.001  -0.000  -0.002
    5       -0.001  -0.001   0.000  -0.001
    6       -0.001  -0.001   0.000  -0.002
    7       -0.001  -0.001   0.000  -0.002
    8       -0.001  -0.001   0.000  -0.001
    9       -0.001  -0.001  -0.000  -0.002
   10       -0.001  -0.001  -0.016  -0.018
   11       -0.001  -0.001  -0.000  -0.002
   12       -0.001  -0.001   0.000  -0.001
   13       -0.001  -0.001   0.000  -0.002
   14       -0.001  -0.001   0.000  -0.001
   15       -0.001  -0.001   0.000  -0.002
   16       -0.001  -0.001   0.000  -0.002
   17       -0.001  -0.001   0.000  -0.002
   18       -0.001  -0.001   0.000  -0.002
   19       -0.001  -0.001   0.000  -0.002
   20       -0.001  -0.001   0.000  -0.002
   21       -0.001  -0.001   0.000  -0.002
   22       -0.002  -0.001  -0.003  -0.006
   23       -0.001  -0.001   0.000  -0.002
   24       -0.001  -0.001   0.000  -0.002
   25       -0.001  -0.001   0.000  -0.002
   26       -0.001  -0.001   0.000  -0.002
   27       -0.001  -0.001   0.000  -0.002
   28       -0.001  -0.001   0.000  -0.002
   29       -0.001  -0.001  -0.016  -0.018
   30       -0.001  -0.001   0.001  -0.001
   31       -0.001  -0.001   0.000  -0.001
   32       -0.001  -0.001   0.000  -0.002
   33       -0.001   0.001  -0.006  -0.006
   34        0.001   0.005  -0.000   0.006
   35        0.001   0.005  -0.000   0.006
   36        0.001   0.005  -0.000   0.005
   37        0.001   0.005  -0.000   0.006
   38        0.001   0.005  -0.000   0.006
   39        0.001   0.005  -0.000   0.006
   40        0.001   0.005  -0.000   0.005
   41        0.001   0.005  -0.000   0.006
   42        0.001   0.005  -0.000   0.005
   43       -0.000   0.004  -0.000   0.004
   44        0.000   0.004  -0.000   0.004
   45        0.001   0.005  -0.000   0.005
   46       -0.001   0.004  -0.000   0.003
   47        0.001   0.005  -0.000   0.005
   48        0.001   0.005  -0.000   0.005
   49        0.000   0.004  -0.000   0.004
   50        0.001   0.005  -0.000   0.005
   51        0.001   0.005  -0.000   0.006
   52        0.001   0.005  -0.000   0.005
   53        0.001   0.005  -0.000   0.005
   54        0.001   0.005  -0.000   0.006
   55        0.001   0.005  -0.000   0.006
   56        0.001   0.005  -0.000   0.006
   57        0.001   0.005  -0.000   0.006
   58        0.001   0.005  -0.000   0.006
   59        0.001   0.005  -0.000   0.006
   60        0.001   0.005  -0.000   0.006
   61        0.001   0.005  -0.000   0.006
   62        0.001   0.005  -0.000   0.006
   63        0.001   0.005  -0.000   0.006
   64        0.001   0.005  -0.000   0.006
   65        0.002   0.005  -0.000   0.007
--------------------------------------------------
tot         -0.009   0.119  -0.037   0.073


 total amount of memory used by VASP MPI-rank0   125247. kBytes
=======================================================================

   base      :      30000. kBytes
   nonl-proj :       5136. kBytes
   fftplans  :       6884. kBytes
   grid      :      12386. kBytes
   one-center:        186. kBytes
   HF        :        129. kBytes
   nonlr-proj:      10316. kBytes
   wavefun   :      60210. kBytes

  
  
 General timing and accounting informations for this job:
 ========================================================
  
                  Total CPU time used (sec):     6425.518
                            User time (sec):     6411.361
                          System time (sec):       14.156
                         Elapsed time (sec):     6469.061
  
                   Maximum memory used (kb):      659012.
                   Average memory used (kb):           0.
  
                          Minor page faults:       121082
                          Major page faults:            0
                 Voluntary context switches:        72405
