 vasp.5.4.4.18Apr17-6-g9f103f2a35 (build Nov 14 2020 21:33:54) complex           
 executed on        HPECrayEX-GNU date 2020.11.30  10:43:34
 running on 2048 total cores
 distrk:  each k-point on 1024 cores,    2 groups
 distr:  one band on NCORES_PER_BAND=   4 cores,  256 groups


--------------------------------------------------------------------------------------------------------


 INCAR:
 POTCAR:    PAW_PBE Cd 06Sep2000                  
 POTCAR:    PAW_PBE Te 08Apr2002                  

 ----------------------------------------------------------------------------- 
|                                                                             |
|           W    W    AA    RRRRR   N    N  II  N    N   GGGG   !!!           |
|           W    W   A  A   R    R  NN   N  II  NN   N  G    G  !!!           |
|           W    W  A    A  R    R  N N  N  II  N N  N  G       !!!           |
|           W WW W  AAAAAA  RRRRR   N  N N  II  N  N N  G  GGG   !            |
|           WW  WW  A    A  R   R   N   NN  II  N   NN  G    G                |
|           W    W  A    A  R    R  N    N  II  N    N   GGGG   !!!           |
|                                                                             |
|      For optimal performance we recommend to set                            |
|        NCORE= 4 - approx SQRT( number of cores)                             |
|      NCORE specifies how many cores store one orbital (NPAR=cpu/NCORE).     |
|      This setting can  greatly improve the performance of VASP for DFT.     |
|      The default,   NCORE=1            might be grossly inefficient         |
|      on modern multi-core architectures or massively parallel machines.     |
|      Do your own testing !!!!                                               |
|      Unfortunately you need to use the default for GW and RPA calculations. |
|      (for HF NCORE is supported but not extensively tested yet)             |
|                                                                             |
 ----------------------------------------------------------------------------- 


 ----------------------------------------------------------------------------- 
|                                                                             |
|           W    W    AA    RRRRR   N    N  II  N    N   GGGG   !!!           |
|           W    W   A  A   R    R  NN   N  II  NN   N  G    G  !!!           |
|           W    W  A    A  R    R  N N  N  II  N N  N  G       !!!           |
|           W WW W  AAAAAA  RRRRR   N  N N  II  N  N N  G  GGG   !            |
|           WW  WW  A    A  R   R   N   NN  II  N   NN  G    G                |
|           W    W  A    A  R    R  N    N  II  N    N   GGGG   !!!           |
|                                                                             |
|      You have enabled k-point parallelism (KPAR>1).                         |
|      This developmental code was originally  written by Paul Kent at ORNL,  |
|      and carefully double checked in Vienna.                                |
|      GW as well as linear response parallelism added by Martijn Marsman     |
|      and Georg Kresse.                                                      |
|      Carefully verify results versus KPAR=1.                                |
|      Report problems to Paul Kent and Vienna.                               |
|                                                                             |
 ----------------------------------------------------------------------------- 

 POTCAR:    PAW_PBE Cd 06Sep2000                  
   VRHFIN =Cd : s2 d10                                                          
   LEXCH  = PE                                                                  
   EATOM  =  1293.1815 eV,   95.0462 Ry                                         
                                                                                
   TITEL  = PAW_PBE Cd 06Sep2000                                                
   LULTRA =        F    use ultrasoft PP ?                                      
   IUNSCR =        1    unscreen: 0-lin 1-nonlin 2-no                           
   RPACOR =    2.000    partial core radius                                     
   POMASS =  112.411; ZVAL   =   12.000    mass and valenz                      
   RCORE  =    2.300    outmost cutoff radius                                   
   RWIGS  =    2.980; RWIGS  =    1.577    wigner-seitz radius (au A)           
   ENMAX  =  274.336; ENMIN  =  205.752 eV                                      
   RCLOC  =    2.054    cutoff for local pot                                    
   LCOR   =        T    correct aug charges                                     
   LPAW   =        T    paw PP                                                  
   EAUG   =  456.106                                                            
   DEXC   =    0.000                                                            
   RMAX   =    2.358    core radius for proj-oper                               
   RAUG   =    1.300    factor for augmentation sphere                          
   RDEP   =    2.450    radius for radial grids                                 
   RDEPT  =    1.955    core radius for aug-charge                              
                                                                                
   Atomic configuration                                                         
   12 entries                                                                   
     n  l   j            E        occ.                                          
     1  0  0.50    -26519.7817   2.0000                                         
     2  0  0.50     -3936.9612   2.0000                                         
     2  1  1.50     -3532.2230   6.0000                                         
     3  0  0.50      -733.7908   2.0000                                         
     3  1  1.50      -601.0792   6.0000                                         
     3  2  2.50      -393.5307  10.0000                                         
     4  0  0.50      -105.8977   2.0000                                         
     4  1  1.50       -66.9488   6.0000                                         
     4  2  2.50       -11.7331  10.0000                                         
     5  0  0.50        -5.6592   2.0000                                         
     5  1  0.50        -1.3606   0.0000                                         
     4  3  2.50        -1.3606   0.0000                                         
   Description                                                                  
     l       E           TYP  RCUT    TYP  RCUT                                 
     2    -11.7331479     23  2.300                                             
     2    -13.0937305     23  2.300                                             
     0     -5.6591502     23  2.300                                             
     0     -1.5561433     23  2.300                                             
     1     -2.7211652     23  2.300                                             
     1      8.3548275     23  2.300                                             
  local pseudopotential read in
  partial core-charges read in
  partial kinetic energy density read in
  atomic valenz-charges read in
  non local Contribution for L=           2  read in
    real space projection operators read in
  non local Contribution for L=           2  read in
    real space projection operators read in
  non local Contribution for L=           0  read in
    real space projection operators read in
  non local Contribution for L=           0  read in
    real space projection operators read in
  non local Contribution for L=           1  read in
    real space projection operators read in
  non local Contribution for L=           1  read in
    real space projection operators read in
    PAW grid and wavefunctions read in

   number of l-projection  operators is LMAX  =           6
   number of lm-projection operators is LMMAX =          18

 POTCAR:    PAW_PBE Te 08Apr2002                  
   VRHFIN =Te: s2p4                                                             
   LEXCH  = PE                                                                  
   EATOM  =   223.2721 eV,   16.4100 Ry                                         
                                                                                
   TITEL  = PAW_PBE Te 08Apr2002                                                
   LULTRA =        F    use ultrasoft PP ?                                      
   IUNSCR =        1    unscreen: 0-lin 1-nonlin 2-no                           
   RPACOR =    2.200    partial core radius                                     
   POMASS =  127.600; ZVAL   =    6.000    mass and valenz                      
   RCORE  =    2.300    outmost cutoff radius                                   
   RWIGS  =    2.900; RWIGS  =    1.535    wigner-seitz radius (au A)           
   ENMAX  =  174.982; ENMIN  =  131.236 eV                                      
   ICORE  =        3    local potential                                         
   LCOR   =        T    correct aug charges                                     
   LPAW   =        T    paw PP                                                  
   EAUG   =  368.792                                                            
   DEXC   =    0.000                                                            
   RMAX   =    2.345    core radius for proj-oper                               
   RAUG   =    1.300    factor for augmentation sphere                          
   RDEP   =    2.397    radius for radial grids                                 
   RDEPT  =    2.174    core radius for aug-charge                              
                                                                                
   Atomic configuration                                                         
   13 entries                                                                   
     n  l   j            E        occ.                                          
     1  0  0.50    -31621.2075   2.0000                                         
     2  0  0.50     -4848.7941   2.0000                                         
     2  1  1.50     -4352.1960   6.0000                                         
     3  0  0.50      -964.9612   2.0000                                         
     3  1  1.50      -803.6179   6.0000                                         
     3  2  2.50      -559.8710  10.0000                                         
     4  0  0.50      -164.3522   2.0000                                         
     4  1  1.50      -114.3756   6.0000                                         
     4  2  2.50       -41.6483  10.0000                                         
     5  0  0.50       -15.1072   2.0000                                         
     5  1  0.50        -5.9526   4.0000                                         
     5  2  1.50        -5.4423   0.0000                                         
     4  3  2.50        -5.4423   0.0000                                         
   Description                                                                  
     l       E           TYP  RCUT    TYP  RCUT                                 
     0    -15.1072389     23  2.300                                             
     0    -16.4678215     23  2.300                                             
     1     -5.9526306     23  2.300                                             
     1     -2.4873968     23  2.300                                             
     2     -5.4423304     23  2.300                                             
     3     -1.3605826     23  2.300                                             
  local pseudopotential read in
  partial core-charges read in
  partial kinetic energy density read in
  atomic valenz-charges read in
  non local Contribution for L=           0  read in
    real space projection operators read in
  non local Contribution for L=           0  read in
    real space projection operators read in
  non local Contribution for L=           1  read in
    real space projection operators read in
  non local Contribution for L=           1  read in
    real space projection operators read in
  non local Contribution for L=           2  read in
    real space projection operators read in
    PAW grid and wavefunctions read in

   number of l-projection  operators is LMAX  =           5
   number of lm-projection operators is LMMAX =          13


 ----------------------------------------------------------------------------- 
|                                                                             |
|  ADVICE TO THIS USER RUNNING 'VASP/VAMP'   (HEAR YOUR MASTER'S VOICE ...):  |
|                                                                             |
|      You have a (more or less) 'large supercell' and for larger cells       |
|      it might be more efficient to use real space projection opertators     |
|      So try LREAL= Auto  in the INCAR   file.                               |
|      Mind:          For very  accurate calculation you might also keep the  |
|      reciprocal projection scheme          (i.e. LREAL=.FALSE.)             |
|                                                                             |
 ----------------------------------------------------------------------------- 

  PAW_PBE Cd 06Sep2000                  :
 energy of atom  1       EATOM=-1293.1815
 kinetic energy error for atom=    0.0084 (will be added to EATOM!!)
  PAW_PBE Te 08Apr2002                  :
 energy of atom  2       EATOM= -223.2721
 kinetic energy error for atom=    0.0008 (will be added to EATOM!!)


 POSCAR: Cd33 Te32                               
  positions in direct lattice
  No initial velocities read in
 exchange correlation table for  LEXCH =        8
   RHO(1)=    0.500       N(1)  =     2000
   RHO(2)=  100.500       N(2)  =     4000



--------------------------------------------------------------------------------------------------------


 ion  position               nearest neighbor table
   1  0.004  0.996  0.004-  44 2.79  35 2.93  54 2.93  65 2.93  33 2.94
   2  0.001  0.999  0.497-  55 2.82  34 2.82  64 2.82  45 2.84
   3  0.001  0.503  0.001-  63 2.82  56 2.82  37 2.82  42 2.84
   4  1.000  0.501  0.499-  57 2.82  62 2.82  36 2.82  43 2.84
   5  0.497  0.999  0.001-  39 2.82  50 2.82  61 2.82  48 2.84
   6  0.499  0.000  0.499-  38 2.82  51 2.82  60 2.82  49 2.84
   7  0.499  0.501  1.000-  41 2.82  59 2.82  52 2.82  46 2.84
   8  0.501  0.499  0.501-  47 2.82  40 2.83  53 2.83  58 2.83
   9  0.001  0.251  0.253-  54 2.82  34 2.82  62 2.82  42 2.84
  10  0.004  0.254  0.746-  43 2.79  35 2.93  55 2.93  63 2.93  33 2.94
  11  1.000  0.749  0.251-  56 2.82  64 2.82  36 2.82  44 2.84
  12  0.001  0.747  0.749-  65 2.82  57 2.82  37 2.82  45 2.84
  13  0.499  0.250  0.251-  38 2.82  50 2.82  58 2.82  46 2.84
  14  0.497  0.251  0.749-  39 2.82  51 2.82  59 2.82  47 2.84
  15  0.501  0.751  0.249-  48 2.82  40 2.83  52 2.83  60 2.83
  16  0.499  0.749  0.750-  41 2.82  61 2.82  53 2.82  49 2.84
  17  0.251  0.000  0.251-  34 2.82  50 2.82  60 2.82  44 2.84
  18  0.253  0.999  0.749-  35 2.82  51 2.82  61 2.82  45 2.84
  19  0.249  0.499  0.249-  42 2.82  36 2.83  52 2.83  58 2.83
  20  0.251  0.501  0.750-  37 2.82  59 2.82  53 2.82  43 2.84
  21  0.749  0.999  0.253-  54 2.82  38 2.82  64 2.82  48 2.84
  22  0.746  0.996  0.746-  49 2.79  39 2.93  55 2.93  65 2.93  33 2.94
  23  0.750  0.501  0.251-  56 2.82  62 2.82  40 2.82  46 2.84
  24  0.749  0.503  0.749-  63 2.82  57 2.82  41 2.82  47 2.84
  25  0.253  0.251  0.001-  35 2.82  50 2.82  59 2.82  42 2.84
  26  0.251  0.250  0.499-  34 2.82  51 2.82  58 2.82  43 2.84
  27  0.251  0.749  1.000-  37 2.82  61 2.82  52 2.82  44 2.84
  28  0.249  0.751  0.501-  45 2.82  36 2.83  53 2.83  60 2.83
  29  0.746  0.254  0.004-  46 2.79  39 2.93  54 2.93  63 2.93  33 2.94
  30  0.749  0.251  0.497-  55 2.82  38 2.82  62 2.82  47 2.84
  31  0.749  0.747  0.001-  65 2.82  56 2.82  41 2.82  48 2.84
  32  0.750  0.749  0.499-  57 2.82  64 2.82  40 2.82  49 2.84
  33  0.875  0.125  0.875-   1 2.94  10 2.94  22 2.94  29 2.94  35 3.37  39 3.37  54 3.37  55 3.37
                            63 3.37  65 3.37
  34  0.127  0.125  0.375-  17 2.82  26 2.82   2 2.82   9 2.82
  35  0.133  0.125  0.875-  18 2.82  25 2.82  10 2.93   1 2.93  33 3.37
  36  0.126  0.625  0.375-   4 2.82  11 2.82  19 2.83  28 2.83
  37  0.127  0.625  0.875-  20 2.82  27 2.82   3 2.82  12 2.82
  38  0.623  0.125  0.375-  13 2.82   6 2.82  21 2.82  30 2.82
  39  0.617  0.125  0.875-  14 2.82   5 2.82  22 2.93  29 2.93  33 3.37
  40  0.624  0.625  0.375-  23 2.82  32 2.82   8 2.83  15 2.83
  41  0.623  0.625  0.875-   7 2.82  16 2.82  31 2.82  24 2.82
  42  0.125  0.375  0.125-  19 2.82   9 2.84  25 2.84   3 2.84
  43  0.127  0.377  0.623-  10 2.79   4 2.84  26 2.84  20 2.84
  44  0.127  0.873  0.127-   1 2.79  11 2.84  17 2.84  27 2.84
  45  0.125  0.875  0.625-  28 2.82  18 2.84   2 2.84  12 2.84
  46  0.623  0.377  0.127-  29 2.79  13 2.84  23 2.84   7 2.84
  47  0.625  0.375  0.625-   8 2.82  14 2.84  24 2.84  30 2.84
  48  0.625  0.875  0.125-  15 2.82  21 2.84   5 2.84  31 2.84
  49  0.623  0.873  0.623-  22 2.79  32 2.84   6 2.84  16 2.84
  50  0.375  0.125  0.127-  17 2.82  13 2.82   5 2.82  25 2.82
  51  0.375  0.125  0.623-   6 2.82  26 2.82  18 2.82  14 2.82
  52  0.375  0.625  0.126-   7 2.82  27 2.82  19 2.83  15 2.83
  53  0.375  0.625  0.624-  16 2.82  20 2.82   8 2.83  28 2.83
  54  0.875  0.125  0.133-   9 2.82  21 2.82   1 2.93  29 2.93  33 3.37
  55  0.875  0.125  0.617-  30 2.82   2 2.82  22 2.93  10 2.93  33 3.37
  56  0.875  0.625  0.127-  11 2.82  23 2.82   3 2.82  31 2.82
  57  0.875  0.625  0.623-   4 2.82  32 2.82  12 2.82  24 2.82
  58  0.375  0.376  0.375-  26 2.82  13 2.82  19 2.83   8 2.83
  59  0.375  0.377  0.875-   7 2.82  20 2.82  14 2.82  25 2.82
  60  0.375  0.874  0.375-   6 2.82  17 2.82  15 2.83  28 2.83
  61  0.375  0.873  0.875-  16 2.82  27 2.82   5 2.82  18 2.82
  62  0.875  0.377  0.375-   4 2.82  23 2.82   9 2.82  30 2.82
  63  0.875  0.383  0.875-  24 2.82   3 2.82  10 2.93  29 2.93  33 3.37
  64  0.875  0.873  0.375-  11 2.82  32 2.82   2 2.82  21 2.82
  65  0.875  0.867  0.875-  12 2.82  31 2.82   1 2.93  22 2.93  33 3.37


IMPORTANT INFORMATION: All symmetrisations will be switched off!
NOSYMM: (Re-)initialisation of all symmetry stuff for point group C_1.



 KPOINTS: Automatically generated mesh            
  k-points in reciprocal lattice
Space group operators:
 irot       det(A)        alpha          n_x          n_y          n_z        tau_x        tau_y        tau_z
    1     1.000000     0.000000     1.000000     0.000000     0.000000     0.000000     0.000000     0.000000

 ----------------------------------------------------------------------------- 
|                                                                             |
|           W    W    AA    RRRRR   N    N  II  N    N   GGGG   !!!           |
|           W    W   A  A   R    R  NN   N  II  NN   N  G    G  !!!           |
|           W    W  A    A  R    R  N N  N  II  N N  N  G       !!!           |
|           W WW W  AAAAAA  RRRRR   N  N N  II  N  N N  G  GGG   !            |
|           WW  WW  A    A  R   R   N   NN  II  N   NN  G    G                |
|           W    W  A    A  R    R  N    N  II  N    N   GGGG   !!!           |
|                                                                             |
|      Your generating k-point grid is not commensurate to the symmetry       |
|      of the lattice.  This can cause   slow convergence with respect        |
|      to k-points for HF type calculations                                   |
|      suggested SOLUTIONS:                                                   |
|       ) if not already the case, use automatic k-point generation           |
|       ) shift your grid to Gamma (G) (e.g. required for hex or fcc lattice) |
|                                                                             |
 ----------------------------------------------------------------------------- 

 
 Subroutine IBZKPT_HF returns following result:
 ==============================================
 
 Found      8 k-points in 1st BZ
 the following      8 k-points will be used (e.g. in the exchange kernel)
 Following reciprocal coordinates:   # in IRBZ
  0.000000  0.000000  0.000000    0.12500000   1 t-inv F
  0.500000  0.000000  0.000000    0.12500000   2 t-inv F
  0.000000  0.500000  0.000000    0.12500000   3 t-inv F
  0.500000  0.500000  0.000000    0.12500000   4 t-inv F
  0.000000  0.000000  0.500000    0.12500000   5 t-inv F
  0.500000  0.000000  0.500000    0.12500000   6 t-inv F
  0.000000  0.500000  0.500000    0.12500000   7 t-inv F
  0.500000  0.500000  0.500000    0.12500000   8 t-inv F


--------------------------------------------------------------------------------------------------------




 Dimension of arrays:
   k-points           NKPTS =      8   k-points in BZ     NKDIM =      8   number of bands    NBANDS=   1024
   number of dos      NEDOS =   2000   number of ions     NIONS =     65
   non local maximal  LDIM  =      6   non local SUM 2l+1 LMDIM =     18
   total plane-waves  NPLWV = 884736
   max r-space proj   IRMAX =      1   max aug-charges    IRDMAX= 183854
   dimension x,y,z NGX =    96 NGY =   96 NGZ =   96
   dimension x,y,z NGXF=   192 NGYF=  192 NGZF=  192
   support grid    NGXF=   384 NGYF=  384 NGZF=  384
   ions per type =              33  32
   NGX,Y,Z   is equivalent  to a cutoff of  12.20, 12.20, 12.20 a.u.
   NGXF,Y,Z  is equivalent  to a cutoff of  24.39, 24.39, 24.39 a.u.

 SYSTEM =  unknown system                          
 POSCAR =  Cd33 Te32                               

 Startparameter for this run:
   NWRITE =      2    write-flag & timer
   PREC   = accura    normal or accurate (medium, high low for compatibility)
   ISTART =      0    job   : 0-new  1-cont  2-samecut
   ICHARG =      1    charge: 1-file 2-atom 10-const
   ISPIN  =      1    spin polarized calculation?
   LNONCOLLINEAR =      T non collinear calculations
   LSORBIT =      T    spin-orbit coupling
   INIWAV =      1    electr: 0-lowe 1-rand  2-diag
   LASPH  =      T    aspherical Exc in radial PAW
   METAGGA=      F    non-selfconsistent MetaGGA calc.

 Electronic Relaxation 1
   ENCUT  =  450.0 eV  33.07 Ry    5.75 a.u.  22.64 22.64 22.64*2*pi/ulx,y,z
   ENINI  =  450.0     initial cutoff
   ENAUG  =  456.1 eV  augmentation charge cutoff
   NELM   =      6;   NELMIN=  2; NELMDL= -5     # of ELM steps 
   EDIFF  = 0.1E-05   stopping-criterion for ELM
   LREAL  =      F    real-space projection
   NLSPLINE    = F    spline interpolate recip. space projectors
   LCOMPAT=      F    compatible to vasp.4.4
   GGA_COMPAT  = T    GGA compatible to vasp.4.4-vasp.4.6
   LMAXPAW     = -100 max onsite density
   LMAXMIX     =    2 max onsite mixed and CHGCAR
   VOSKOWN=      0    Vosko Wilk Nusair interpolation
   ROPT   =    0.00000   0.00000
 Ionic relaxation
   EDIFFG = -.1E-01   stopping-criterion for IOM
   NSW    =      0    number of steps for IOM
   NBLOCK =      1;   KBLOCK =      1    inner block; outer block 
   IBRION =     -1    ionic relax: 0-MD 1-quasi-New 2-CG
   NFREE  =      0    steps in history (QN), initial steepest desc. (CG)
   ISIF   =      2    stress and relaxation
   IWAVPR =     10    prediction:  0-non 1-charg 2-wave 3-comb
   ISYM   =      0    0-nonsym 1-usesym 2-fastsym
   LCORR  =      T    Harris-Foulkes like correction to forces

   POTIM  = 0.5000    time-step for ionic-motion
   TEIN   =    0.0    initial temperature
   TEBEG  =    0.0;   TEEND  =   0.0 temperature during run
   SMASS  =  -3.00    Nose mass-parameter (am)
   estimated Nose-frequenzy (Omega)   =  0.10E-29 period in steps =****** mass=  -0.391E-26a.u.
   SCALEE = 1.0000    scale energy and forces
   NPACO  =    256;   APACO  = 16.0  distance and # of slots for P.C.
   PSTRESS=    0.0 pullay stress

  Mass of Ions in am
   POMASS = 112.41127.60
  Ionic Valenz
   ZVAL   =  12.00  6.00
  Atomic Wigner-Seitz radii
   RWIGS  =  -1.00 -1.00
  virtual crystal weights 
   VCA    =   1.00  1.00
   NELECT =     588.0000    total number of electrons
   NUPDOWN=      -1.0000    fix difference up-down

 DOS related values:
   EMIN   =  10.00;   EMAX   =-10.00  energy-range for DOS
   EFERMI =   0.00
   ISMEAR =     0;   SIGMA  =   0.05  broadening in eV -4-tet -1-fermi 0-gaus

 Electronic relaxation 2 (details)
   IALGO  =     58    algorithm
   LDIAG  =      T    sub-space diagonalisation (order eigenvalues)
   LSUBROT=      F    optimize rotation matrix (better conditioning)
   TURBO    =      0    0=normal 1=particle mesh
   IRESTART =      0    0=no restart 2=restart with 2 vectors
   NREBOOT  =      0    no. of reboots
   NMIN     =      0    reboot dimension
   EREF     =   0.00    reference energy to select bands
   IMIX   =      4    mixing-type and parameters
     AMIX     =   0.40;   BMIX     =  1.00
     AMIX_MAG =   1.60;   BMIX_MAG =  1.00
     AMIN     =   0.10
     WC   =   100.;   INIMIX=   1;  MIXPRE=   1;  MAXMIX= -45

 Intra band minimization:
   WEIMIN = 0.0000     energy-eigenvalue tresh-hold
   EBREAK =  0.24E-09  absolut break condition
   DEPER  =   0.30     relativ break condition  

   TIME   =   0.40     timestep for ELM

  volume/ion in A,a.u.               =      34.48       232.69
  Fermi-wavevector in a.u.,A,eV,Ry     =   1.048017  1.980464 14.943809  1.098339
  Thomas-Fermi vector in A             =   2.182921

 Write flags
   LWAVE        =      T    write WAVECAR
   LDOWNSAMPLE  =      F    k-point downsampling of WAVECAR
   LCHARG       =      T    write CHGCAR
   LVTOT        =      F    write LOCPOT, total local potential
   LVHAR        =      T    write LOCPOT, Hartree potential only
   LELF         =      F    write electronic localiz. function (ELF)
   LORBIT       =     11    0 simple, 1 ext, 2 COOP (PROOUT), +10 PAW based schemes


 Dipole corrections
   LMONO  =      F    monopole corrections only (constant potential shift)
   LDIPOL =      F    correct potential (dipole corrections)
   IDIPOL =      0    1-x, 2-y, 3-z, 4-all directions 
   EPSILON=  1.0000000 bulk dielectric constant

 Exchange correlation treatment:
   GGA     =    --    GGA type
   LEXCH   =     8    internal setting for exchange type
   VOSKOWN=      0    Vosko Wilk Nusair interpolation
   EXXOEP  =     0    0=HF, 1=EXX-LHF (local Hartree Fock) 2=EXX OEP
   LHFCALC =     T    Hartree Fock is set to
   LSYMGRAD=     F    symmetrize gradient (conserves proper symmetry)
   PRECFOCK=fast      Normal, Fast or Accurate (Low or Medium for compatibility)
   LRHFCALC=     F    long range Hartree Fock
   LRSCOR  =     F    long range correlation only (use DFT for short range part)
   LTHOMAS =     F    Thomas Fermi screening in HF
   LMODELHF=     F    short range full HF, long range fraction AEXX
   ENCUT4O =  -1.0   cutoff for four orbital integrals eV
   LMAXFOCK=     4    L truncation for augmentation on plane wave grid
   LMAXFOCKAE=  -1    L truncation for all-electron charge restoration on plane wave grid
   NMAXFOCKAE=   1    number of basis functions for all-electron charge restoration
   LFOCKAEDFT=     F  apply the AE augmentation even for DFT
   NKREDX  =     1    reduce k-point grid by
   NKREDY  =     1    reduce k-point grid by
   NKREDZ  =     1    reduce k-point grid by
   SHIFTRED=     F    shift reduced grid of Gamma
   HFKIDENT=     F    idential grid for each k-point
   ODDONLY =     F    use only odd q-grid points
   EVENONLY=     F    use only even q-grid points
   HFALPHA =   -1.0000 decay constant for conv. correction
   MCALPHA =    0.0000 extent of test-charge in conv. correction in multipole expansion
   AEXX    =    0.2500 exact exchange contribution
   HFSCREEN=    0.2000 screening length (either q_TF or 0.3 A-1)
   HFSCREENC=   0.2000 screening length for correlation (either q_TF or 0.3 A-1)
   HFRCUT  =    0.0000 spherical cutoff for potential kernel
   ALDAX   =    0.7500 LDA exchange part
   AGGAX   =    0.7500 GGA exchange part
   ALDAC   =    1.0000 LDA correlation
   AGGAC   =    1.0000 GGA correlation
   ENCUTFOCK=  -1.0 apply spherical cutoff to Coloumb kernel
   NBANDSGWLOW=     1    first orbital included in HF term
   NBLOCK_FOCK=    64    blocking factor in FOCK_ACC
 Linear response parameters
   LEPSILON=     F    determine dielectric tensor
   LRPA    =     F    only Hartree local field effects (RPA)
   LNABLA  =     F    use nabla operator in PAW spheres
   LVEL    =     F    velocity operator in full k-point grid
   LINTERFAST=   F  fast interpolation
   KINTER  =     0    interpolate to denser k-point grid
   CSHIFT  =0.1000    complex shift for real part using Kramers Kronig
   OMEGAMAX=  -1.0    maximum frequency
   DEG_THRESHOLD= 0.2000000E-02 threshold for treating states as degnerate
   RTIME   =   -0.100 relaxation time in fs
  (WPLASMAI=    0.000 imaginary part of plasma frequency in eV, 0.658/RTIME)
   DFIELD  = 0.0000000 0.0000000 0.0000000 field for delta impulse in time

 Orbital magnetization related:
   ORBITALMAG=     F  switch on orbital magnetization
   LCHIMAG   =     F  perturbation theory with respect to B field
   DQ        =  0.001000  dq finite difference perturbation B field
   LLRAUG    =     F  two centre corrections for induced B field



--------------------------------------------------------------------------------------------------------


 Static calculation
 charge density and potential will be updated during run
 non collinear spin polarized calculation
 Conjugate gradient for all bands (Freysoldt, et al. PRB 79, 241103 (2009))
 preconditioned conjugated gradient                                        
 perform sub-space diagonalisation
    before iterative eigenvector-optimisation
 modified Broyden-mixing scheme, WC =      100.0
 initial mixing is a Kerker type mixing with AMIX =  0.4000 and BMIX =      1.0000
 Hartree-type preconditioning will be used
 using additional bands          730
 reciprocal scheme for non local part
 use partial core corrections
 no Harris-corrections to forces 
 use gradient corrections 
 use of overlap-Matrix (Vanderbilt PP)
 Gauss-broadening in eV      SIGMA  =   0.05


--------------------------------------------------------------------------------------------------------


  energy-cutoff  :      450.00
  volume of cell :     2241.29
      direct lattice vectors                 reciprocal lattice vectors
    13.086768000  0.000000000  0.000000000     0.076413061  0.000000000  0.000000000
     0.000000000 13.086768000  0.000000000     0.000000000  0.076413061  0.000000000
     0.000000000  0.000000000 13.086768000     0.000000000  0.000000000  0.076413061

  length of vectors
    13.086768000 13.086768000 13.086768000     0.076413061  0.076413061  0.076413061



 k-points in units of 2pi/SCALE and weight: Automatically generated mesh            
   0.00000000  0.00000000  0.00000000       0.125
   0.03820653  0.00000000  0.00000000       0.125
   0.00000000  0.03820653  0.00000000       0.125
   0.03820653  0.03820653  0.00000000       0.125
   0.00000000  0.00000000  0.03820653       0.125
   0.03820653  0.00000000  0.03820653       0.125
   0.00000000  0.03820653  0.03820653       0.125
   0.03820653  0.03820653  0.03820653       0.125

 k-points in reciprocal lattice and weights: Automatically generated mesh            
   0.00000000  0.00000000  0.00000000       0.125
   0.50000000  0.00000000  0.00000000       0.125
   0.00000000  0.50000000  0.00000000       0.125
   0.50000000  0.50000000  0.00000000       0.125
   0.00000000  0.00000000  0.50000000       0.125
   0.50000000  0.00000000  0.50000000       0.125
   0.00000000  0.50000000  0.50000000       0.125
   0.50000000  0.50000000  0.50000000       0.125

 position of ions in fractional coordinates (direct lattice) 
   0.00448500  0.99551500  0.00448500
   0.00124700  0.99875300  0.49695900
   0.00124700  0.50304100  0.00124700
   0.99962500  0.50121800  0.49878200
   0.49695900  0.99875300  0.00124700
   0.49878100  0.00037500  0.49878100
   0.49878100  0.50121900  0.99962500
   0.50052800  0.49947200  0.50052800
   0.00124700  0.25124700  0.25304000
   0.00448600  0.25448500  0.74551500
   0.99962500  0.74878200  0.25121800
   0.00124700  0.74695900  0.74875300
   0.49878200  0.24962500  0.25121900
   0.49696000  0.25124700  0.74875300
   0.50052800  0.75052800  0.24947200
   0.49878100  0.74878100  0.75037500
   0.25121900  0.00037500  0.25121900
   0.25304000  0.99875300  0.74875300
   0.24947200  0.49947200  0.24947200
   0.25121900  0.50121900  0.75037500
   0.74875300  0.99875300  0.25304000
   0.74551400  0.99551500  0.74551500
   0.75037500  0.50121900  0.25121900
   0.74875300  0.50304000  0.74875300
   0.25304000  0.25124700  0.00124700
   0.25121900  0.24962500  0.49878100
   0.25121900  0.74878100  0.99962500
   0.24947200  0.75052800  0.50052800
   0.74551400  0.25448500  0.00448500
   0.74875300  0.25124700  0.49696000
   0.74875300  0.74695900  0.00124700
   0.75037500  0.74878200  0.49878200
   0.87500000  0.12500000  0.87500000
   0.12665600  0.12500000  0.37500000
   0.13277900  0.12500000  0.87500000
   0.12589200  0.62500000  0.37500000
   0.12665600  0.62500000  0.87500000
   0.62334400  0.12500000  0.37500000
   0.61722100  0.12500000  0.87500000
   0.62410800  0.62500000  0.37500000
   0.62334400  0.62500000  0.87500000
   0.12484800  0.37484800  0.12484800
   0.12748800  0.37748800  0.62251200
   0.12748800  0.87251200  0.12748800
   0.12484800  0.87515200  0.62515200
   0.62251200  0.37748800  0.12748800
   0.62515200  0.37484800  0.62515200
   0.62515200  0.87515200  0.12484800
   0.62251200  0.87251200  0.62251200
   0.37500000  0.12500000  0.12665600
   0.37500000  0.12500000  0.62334400
   0.37500000  0.62500000  0.12589200
   0.37500000  0.62500000  0.62410800
   0.87500000  0.12500000  0.13277900
   0.87500000  0.12500000  0.61722100
   0.87500000  0.62500000  0.12665600
   0.87500000  0.62500000  0.62334400
   0.37500000  0.37589200  0.37500000
   0.37500000  0.37665600  0.87500000
   0.37500000  0.87410800  0.37500000
   0.37500000  0.87334400  0.87500000
   0.87500000  0.37665600  0.37500000
   0.87500000  0.38277900  0.87500000
   0.87500000  0.87334400  0.37500000
   0.87500000  0.86722100  0.87500000

 position of ions in cartesian coordinates  (Angst):
   0.05869415 13.02807385  0.05869415
   0.01631920 13.07044880  6.50358714
   0.01631920  6.58318086  0.01631920
  13.08186046  6.55932368  6.52744432
   6.50358714 13.07044880  0.01631920
   6.52743123  0.00490754  6.52743123
   6.52743123  6.55933677 13.08186046
   6.55029381  6.53647419  6.55029381
   0.01631920  3.28801120  3.31147577
   0.05870724  3.33038615  9.75638185
  13.08186046  9.79913632  3.28763168
   0.01631920  9.77527914  9.79875680
   6.52744432  3.26678446  3.28764477
   6.50360023  3.28801120  9.79875680
   6.55029381  9.82198581  3.26478219
   6.52743123  9.79912323  9.81998354
   3.28764477  0.00490754  3.28764477
   3.31147577 13.07044880  9.79875680
   3.26478219  6.53647419  3.26478219
   3.28764477  6.55933677  9.81998354
   9.79875680 13.07044880  3.31147577
   9.75636876 13.02807385  9.75638185
   9.81998354  6.55933677  3.28764477
   9.79875680  6.58316777  9.79875680
   3.31147577  3.28801120  0.01631920
   3.28764477  3.26678446  6.52743123
   3.28764477  9.79912323 13.08186046
   3.26478219  9.82198581  6.55029381
   9.75636876  3.33038615  0.05869415
   9.79875680  3.28801120  6.50360023
   9.79875680  9.77527914  0.01631920
   9.81998354  9.79913632  6.52744432
  11.45092200  1.63584600 11.45092200
   1.65751769  1.63584600  4.90753800
   1.73764797  1.63584600 11.45092200
   1.64751940  8.17923000  4.90753800
   1.65751769  8.17923000 11.45092200
   8.15755831  1.63584600  4.90753800
   8.07742803  1.63584600 11.45092200
   8.16755660  8.17923000  4.90753800
   8.15755831  8.17923000 11.45092200
   1.63385681  4.90554881  1.63385681
   1.66840588  4.94009788  8.14667012
   1.66840588 11.41836212  1.66840588
   1.63385681 11.45291119  8.18121919
   8.14667012  4.94009788  1.66840588
   8.18121919  4.90554881  8.18121919
   8.18121919 11.45291119  1.63385681
   8.14667012 11.41836212  8.14667012
   4.90753800  1.63584600  1.65751769
   4.90753800  1.63584600  8.15755831
   4.90753800  8.17923000  1.64751940
   4.90753800  8.17923000  8.16755660
  11.45092200  1.63584600  1.73764797
  11.45092200  1.63584600  8.07742803
  11.45092200  8.17923000  1.65751769
  11.45092200  8.17923000  8.15755831
   4.90753800  4.91921140  4.90753800
   4.90753800  4.92920969 11.45092200
   4.90753800 11.43924860  4.90753800
   4.90753800 11.42925031 11.45092200
  11.45092200  4.92920969  4.90753800
  11.45092200  5.00933997 11.45092200
  11.45092200 11.42925031  4.90753800
  11.45092200 11.34912003 11.45092200

 Euler angles ALPHA=     0.0000000  BETA=     0.0000000

 transformation matrix from SAXIS to cartesian coordinates
 ---------------------------------------------------------
     1.0000000 m_x    -0.0000000 m_y     0.0000000 m_z
     0.0000000 m_x     1.0000000 m_y     0.0000000 m_z
    -0.0000000 m_x     0.0000000 m_y     1.0000000 m_z

 transformation matrix from cartesian coordinates to SAXIS
 ---------------------------------------------------------
     1.0000000 m_x     0.0000000 m_y    -0.0000000 m_z
    -0.0000000 m_x     1.0000000 m_y     0.0000000 m_z
     0.0000000 m_x     0.0000000 m_y     1.0000000 m_z




--------------------------------------------------------------------------------------------------------


 k-point  1 :   0.0000 0.0000 0.0000  plane waves:   97002
 k-point  2 :   0.5000 0.0000 0.0000  plane waves:   97356
 k-point  3 :   0.0000 0.5000 0.0000  plane waves:   97356
 k-point  4 :   0.5000 0.5000 0.0000  plane waves:   96960
 k-point  5 :   0.0000 0.0000 0.5000  plane waves:   97356
 k-point  6 :   0.5000 0.0000 0.5000  plane waves:   96960
 k-point  7 :   0.0000 0.5000 0.5000  plane waves:   96960
 k-point  8 :   0.5000 0.5000 0.5000  plane waves:   96832

 maximum and minimum number of plane-waves per node :     24376    24184

 maximum number of plane-waves:     97356
 maximum index in each direction: 
   IXMAX=   22   IYMAX=   22   IZMAX=   22
   IXMIN=  -23   IYMIN=  -23   IZMIN=  -23


 parallel 3D FFT for wavefunctions:
    minimum data exchange during FFTs selected (reduces bandwidth)
 parallel 3D FFT for charge:
    minimum data exchange during FFTs selected (reduces bandwidth)


 FFT grid for exact exchange (Hartree Fock) 
  NGX = 48; NGY = 48; NGZ = 48


 Radii for the augmentation spheres in the non-local exchange
 for species   1 augmentation radius   1.444 (default was   1.070)
       energy cutoff for augmentation   1800.0
 for species   2 augmentation radius   1.606 (default was   1.190)
       energy cutoff for augmentation   1800.0

 real space projection operators:
  total allocation   :       9375.20 KBytes
  max/ min on nodes  :       2371.68       2281.25

 Maximum index for augmentation-charges in exchange          207
  SETUP_FOCK is finished

 total amount of memory used by VASP MPI-rank0   166995. kBytes
=======================================================================

   base      :      30000. kBytes
   nonl-proj :      41091. kBytes
   fftplans  :      14448. kBytes
   grid      :      37158. kBytes
   one-center:       1057. kBytes
   HF        :        129. kBytes
   nonlr-proj:       3791. kBytes
   wavefun   :      39321. kBytes

     INWAV:  cpu time    0.0000: real time    0.0000
 Broyden mixing: mesh for mixing (old mesh)
   NGX = 45   NGY = 45   NGZ = 45
  (NGX  =192   NGY  =192   NGZ  =192)
  gives a total of  91125 points

 initial charge density was supplied:
 number of electron     588.0000006 magnetization      -0.0000011     -0.0000293     -0.0000015
 keeping initial charge density in first step


--------------------------------------------------------------------------------------------------------


 Maximum index for augmentation-charges         3093 (set IRDMAX)


--------------------------------------------------------------------------------------------------------


 First call to EWALD:  gamma=   0.135
 Maximum number of real-space cells 3x 3x 3
 Maximum number of reciprocal cells 3x 3x 3

    FEWALD:  cpu time    0.0243: real time    0.0243


--------------------------------------- Iteration      1(   1)  ---------------------------------------


    POTLOK:  cpu time    0.8402: real time    0.8410
    SETDIJ:  cpu time    1.4823: real time    1.4827
    TRIAL :  cpu time   48.3620: real time   48.3762
    CORREC:  cpu time    0.0015: real time    0.0015
    --------------------------------------------
      LOOP:  cpu time   50.8028: real time   50.8541

 eigenvalue-minimisations  : 16384
 total energy-change (2. order) : 0.4292068E+04  (-0.2704579E+05)
 number of electron     588.0000006 magnetization      -0.0000011     -0.0000293     -0.0000015
 augmentation part      588.0000006 magnetization      -0.0000011     -0.0000293     -0.0000015

 Free energy of the ion-electron system (eV)
  ---------------------------------------------------
  alpha Z        PSCENC =      1642.45118531
  Ewald energy   TEWEN  =    -33940.17512420
  -Hartree energ DENC   =    -16838.11458652
  -exchange      EXHF   =         0.00000000
  -V(xc)+E(xc)   XCENC  =      -629.20510269
  PAW double counting   =    116490.08367181  -114445.29997249
  entropy T*S    EENTRO =        -0.02924611
  eigenvalues    EBANDS =      2262.93140665
  atomic energy  EATOM  =     49749.42546356
  ---------------------------------------------------
  free energy    TOTEN  =      4292.06769532 eV

  energy without entropy =     4292.09694143  energy(sigma->0) =     4292.08231838
  exchange ACFDT corr.  =         0.00000000  see jH, gK, PRB 81, 115126


--------------------------------------------------------------------------------------------------------




--------------------------------------- Iteration      1(   2)  ---------------------------------------


    TRIAL :  cpu time   62.1007: real time   62.1202
    CORREC:  cpu time    0.0014: real time    0.0014
    --------------------------------------------
      LOOP:  cpu time   62.1199: real time   62.1403

 eigenvalue-minimisations  : 18944
 total energy-change (2. order) :-0.3220876E+04  (-0.3104862E+04)
 number of electron     588.0000006 magnetization      -0.0000011     -0.0000293     -0.0000015
 augmentation part      588.0000006 magnetization      -0.0000011     -0.0000293     -0.0000015

 Free energy of the ion-electron system (eV)
  ---------------------------------------------------
  alpha Z        PSCENC =      1642.45118531
  Ewald energy   TEWEN  =    -33940.17512420
  -Hartree energ DENC   =    -16838.11458652
  -exchange      EXHF   =         0.00000000
  -V(xc)+E(xc)   XCENC  =      -629.20510269
  PAW double counting   =    116490.08367181  -114445.29997249
  entropy T*S    EENTRO =        -0.01287945
  eigenvalues    EBANDS =      -957.96074771
  atomic energy  EATOM  =     49749.42546356
  ---------------------------------------------------
  free energy    TOTEN  =      1071.19190762 eV

  energy without entropy =     1071.20478707  energy(sigma->0) =     1071.19834735
  exchange ACFDT corr.  =         0.00000000  see jH, gK, PRB 81, 115126


--------------------------------------------------------------------------------------------------------




--------------------------------------- Iteration      1(   3)  ---------------------------------------


    TRIAL :  cpu time   84.7204: real time   84.7492
    CORREC:  cpu time    0.0016: real time    0.0016
    --------------------------------------------
      LOOP:  cpu time   84.7395: real time   84.7689

 eigenvalue-minimisations  : 20480
 total energy-change (2. order) :-0.1398031E+03  (-0.1391668E+03)
 number of electron     588.0000006 magnetization      -0.0000011     -0.0000293     -0.0000015
 augmentation part      588.0000006 magnetization      -0.0000011     -0.0000293     -0.0000015

 Free energy of the ion-electron system (eV)
  ---------------------------------------------------
  alpha Z        PSCENC =      1642.45118531
  Ewald energy   TEWEN  =    -33940.17512420
  -Hartree energ DENC   =    -16838.11458652
  -exchange      EXHF   =         0.00000000
  -V(xc)+E(xc)   XCENC  =      -629.20510269
  PAW double counting   =    116490.08367181  -114445.29997249
  entropy T*S    EENTRO =        -0.01358227
  eigenvalues    EBANDS =     -1097.76312972
  atomic energy  EATOM  =     49749.42546356
  ---------------------------------------------------
  free energy    TOTEN  =       931.38882280 eV

  energy without entropy =      931.40240506  energy(sigma->0) =      931.39561393
  exchange ACFDT corr.  =         0.00000000  see jH, gK, PRB 81, 115126


--------------------------------------------------------------------------------------------------------




--------------------------------------- Iteration      1(   4)  ---------------------------------------


    TRIAL :  cpu time   82.7611: real time   82.7842
    CORREC:  cpu time    0.0014: real time    0.0014
    --------------------------------------------
      LOOP:  cpu time   82.7818: real time   82.8057

 eigenvalue-minimisations  : 21760
 total energy-change (2. order) :-0.2312385E+01  (-0.2311614E+01)
 number of electron     588.0000006 magnetization      -0.0000011     -0.0000293     -0.0000015
 augmentation part      588.0000006 magnetization      -0.0000011     -0.0000293     -0.0000015

 Free energy of the ion-electron system (eV)
  ---------------------------------------------------
  alpha Z        PSCENC =      1642.45118531
  Ewald energy   TEWEN  =    -33940.17512420
  -Hartree energ DENC   =    -16838.11458652
  -exchange      EXHF   =         0.00000000
  -V(xc)+E(xc)   XCENC  =      -629.20510269
  PAW double counting   =    116490.08367181  -114445.29997249
  entropy T*S    EENTRO =        -0.01362220
  eigenvalues    EBANDS =     -1100.07547485
  atomic energy  EATOM  =     49749.42546356
  ---------------------------------------------------
  free energy    TOTEN  =       929.07643773 eV

  energy without entropy =      929.09005993  energy(sigma->0) =      929.08324883
  exchange ACFDT corr.  =         0.00000000  see jH, gK, PRB 81, 115126


--------------------------------------------------------------------------------------------------------




--------------------------------------- Iteration      1(   5)  ---------------------------------------


    TRIAL :  cpu time   83.4889: real time   83.5147
    CORREC:  cpu time    0.0016: real time    0.0016
    CHARGE:  cpu time    1.0694: real time    1.0704
    --------------------------------------------
      LOOP:  cpu time   84.5820: real time   84.6096

 eigenvalue-minimisations  : 20480
 total energy-change (2. order) :-0.1771305E-01  (-0.1757165E-01)
 number of electron     588.0000006 magnetization      -0.0000792     -0.0000281     -0.0000829
 augmentation part      147.9975337 magnetization       0.0000060      0.0000237      0.0000335

 Free energy of the ion-electron system (eV)
  ---------------------------------------------------
  alpha Z        PSCENC =      1642.45118531
  Ewald energy   TEWEN  =    -33940.17512420
  -Hartree energ DENC   =    -16838.11458652
  -exchange      EXHF   =         0.00000000
  -V(xc)+E(xc)   XCENC  =      -629.20510269
  PAW double counting   =    116490.08367181  -114445.29997249
  entropy T*S    EENTRO =        -0.01361760
  eigenvalues    EBANDS =     -1100.09319250
  atomic energy  EATOM  =     49749.42546356
  ---------------------------------------------------
  free energy    TOTEN  =       929.05872468 eV

  energy without entropy =      929.07234228  energy(sigma->0) =      929.06553348
  exchange ACFDT corr.  =         0.00000000  see jH, gK, PRB 81, 115126


--------------------------------------------------------------------------------------------------------




--------------------------------------- Iteration      1(   6)  ---------------------------------------


    POTLOK:  cpu time    0.7265: real time    0.7267
    SETDIJ:  cpu time    1.4321: real time    1.4323
    TRIAL :  cpu time  373.2386: real time  373.4117
    CORREC:  cpu time  371.1473: real time  371.3177
    EDDIAG:  cpu time  363.8769: real time  364.0409
    CHARGE:  cpu time    1.0398: real time    1.0408
    --------------------------------------------
      LOOP:  cpu time 1111.4800: real time 1111.9896

 eigenvalue-minimisations  :     0
 total energy-change (2. order) :-0.1097750E+04  (-0.2218824E+02)
 number of electron     588.0000006 magnetization      -0.0000269     -0.0000099     -0.0000385
 augmentation part      153.8312923 magnetization       0.0006797      0.0002242     -0.0002566

 Free energy of the ion-electron system (eV)
  ---------------------------------------------------
  alpha Z        PSCENC =      1642.45118531
  Ewald energy   TEWEN  =    -33940.17512420
  -Hartree energ DENC   =    -16026.56061540
  -exchange      EXHF   =      1129.61589631
  -V(xc)+E(xc)   XCENC  =      -648.56168734
  PAW double counting   =    119266.97406011  -117192.81272638
  entropy T*S    EENTRO =        -0.00482165
  eigenvalues    EBANDS =     -4128.76901326
  atomic energy  EATOM  =     49749.42546356
  ---------------------------------------------------
  free energy    TOTEN  =      -168.69114563 eV

  energy without entropy =     -168.68632398  energy(sigma->0) =     -168.68873480
  exchange ACFDT corr.  =        -0.02259108  see jH, gK, PRB 81, 115126


--------------------------------------------------------------------------------------------------------


  average scaling for gradient   0.9556


 average (electrostatic) potential at core
  the test charge radii are     1.0698  1.1897
  (the norm of the test charge is              1.0000)
       1 -32.5876       2 -32.5756       3 -32.5750       4 -32.6783       5 -32.5752
       6 -32.6801       7 -32.6799       8 -32.7073       9 -32.5758      10 -32.5891
      11 -32.6802      12 -32.5763      13 -32.6803      14 -32.5766      15 -32.7080
      16 -32.6808      17 -32.6810      18 -32.5756      19 -32.7073      20 -32.6801
      21 -32.5754      22 -32.5886      23 -32.6789      24 -32.5754      25 -32.5762
      26 -32.6799      27 -32.6809      28 -32.7084      29 -32.5889      30 -32.5755
      31 -32.5753      32 -32.6800      33 -31.6115      34 -88.2746      35 -88.1338
      36 -88.3493      37 -88.2760      38 -88.2750      39 -88.1337      40 -88.3491
      41 -88.2751      42 -88.2566      43 -88.3224      44 -88.3226      45 -88.2568
      46 -88.3225      47 -88.2577      48 -88.2576      49 -88.3222      50 -88.2743
      51 -88.2747      52 -88.3488      53 -88.3487      54 -88.1345      55 -88.1334
      56 -88.2746      57 -88.2748      58 -88.3487      59 -88.2747      60 -88.3494
      61 -88.2740      62 -88.2746      63 -88.1334      64 -88.2742      65 -88.1342



 E-fermi :   4.5576     XC(G=0):  -7.2970     alpha+bet : -7.2837


 k-point     1 :       0.0000    0.0000    0.0000
  band No.  band energies     occupation 
      1     -10.6750      1.00000
      2     -10.6750      1.00000
      3     -10.4255      1.00000
      4     -10.4255      1.00000
      5     -10.4243      1.00000
      6     -10.4243      1.00000
      7     -10.4242      1.00000
      8     -10.4241      1.00000
      9     -10.4213      1.00000
     10     -10.4213      1.00000
     11     -10.4211      1.00000
     12     -10.4211      1.00000
     13     -10.3995      1.00000
     14     -10.3995      1.00000
     15     -10.3322      1.00000
     16     -10.3322      1.00000
     17     -10.3321      1.00000
     18     -10.3321      1.00000
     19     -10.3282      1.00000
     20     -10.3282      1.00000
     21     -10.3045      1.00000
     22     -10.3045      1.00000
     23     -10.3043      1.00000
     24     -10.3043      1.00000
     25     -10.3018      1.00000
     26     -10.3018      1.00000
     27     -10.2965      1.00000
     28     -10.2965      1.00000
     29     -10.2939      1.00000
     30     -10.2939      1.00000
     31     -10.2938      1.00000
     32     -10.2938      1.00000
     33     -10.2911      1.00000
     34     -10.2911      1.00000
     35     -10.2843      1.00000
     36     -10.2843      1.00000
     37     -10.2842      1.00000
     38     -10.2841      1.00000
     39     -10.2228      1.00000
     40     -10.2228      1.00000
     41     -10.2144      1.00000
     42     -10.2144      1.00000
     43     -10.2126      1.00000
     44     -10.2126      1.00000
     45     -10.2125      1.00000
     46     -10.2125      1.00000
     47     -10.2008      1.00000
     48     -10.2008      1.00000
     49     -10.2007      1.00000
     50     -10.2007      1.00000
     51     -10.1809      1.00000
     52     -10.1809      1.00000
     53     -10.1382      1.00000
     54     -10.1382      1.00000
     55     -10.0948      1.00000
     56     -10.0948      1.00000
     57     -10.0947      1.00000
     58     -10.0946      1.00000
     59     -10.0904      1.00000
     60     -10.0904      1.00000
     61     -10.0615      1.00000
     62     -10.0615      1.00000
     63     -10.0613      1.00000
     64     -10.0613      1.00000
     65      -8.1561      1.00000
     66      -8.1561      1.00000
     67      -8.1559      1.00000
     68      -8.1559      1.00000
     69      -8.1469      1.00000
     70      -8.1468      1.00000
     71      -8.1465      1.00000
     72      -8.1465      1.00000
     73      -8.1393      1.00000
     74      -8.1392      1.00000
     75      -8.1389      1.00000
     76      -8.1389      1.00000
     77      -8.1248      1.00000
     78      -8.1248      1.00000
     79      -8.1245      1.00000
     80      -8.1245      1.00000
     81      -8.1233      1.00000
     82      -8.1233      1.00000
     83      -8.1232      1.00000
     84      -8.1232      1.00000
     85      -8.1117      1.00000
     86      -8.1117      1.00000
     87      -8.1112      1.00000
     88      -8.1112      1.00000
     89      -8.1088      1.00000
     90      -8.1088      1.00000
     91      -8.1086      1.00000
     92      -8.1086      1.00000
     93      -8.0977      1.00000
     94      -8.0977      1.00000
     95      -8.0974      1.00000
     96      -8.0973      1.00000
     97      -8.0897      1.00000
     98      -8.0897      1.00000
     99      -8.0868      1.00000
    100      -8.0868      1.00000
    101      -8.0867      1.00000
    102      -8.0867      1.00000
    103      -8.0809      1.00000
    104      -8.0809      1.00000
    105      -8.0777      1.00000
    106      -8.0777      1.00000
    107      -8.0775      1.00000
    108      -8.0774      1.00000
    109      -8.0634      1.00000
    110      -8.0634      1.00000
    111      -8.0602      1.00000
    112      -8.0602      1.00000
    113      -8.0601      1.00000
    114      -8.0601      1.00000
    115      -8.0595      1.00000
    116      -8.0594      1.00000
    117      -8.0305      1.00000
    118      -8.0305      1.00000
    119      -8.0304      1.00000
    120      -8.0304      1.00000
    121      -8.0227      1.00000
    122      -8.0227      1.00000
    123      -8.0224      1.00000
    124      -8.0224      1.00000
    125      -8.0105      1.00000
    126      -8.0104      1.00000
    127      -8.0103      1.00000
    128      -8.0103      1.00000
    129      -8.0041      1.00000
    130      -8.0041      1.00000
    131      -8.0027      1.00000
    132      -8.0027      1.00000
    133      -7.9960      1.00000
    134      -7.9960      1.00000
    135      -7.9953      1.00000
    136      -7.9953      1.00000
    137      -7.9952      1.00000
    138      -7.9952      1.00000
    139      -7.9769      1.00000
    140      -7.9769      1.00000
    141      -7.9766      1.00000
    142      -7.9766      1.00000
    143      -7.9737      1.00000
    144      -7.9737      1.00000
    145      -7.9722      1.00000
    146      -7.9722      1.00000
    147      -7.9714      1.00000
    148      -7.9714      1.00000
    149      -7.9713      1.00000
    150      -7.9713      1.00000
    151      -7.9679      1.00000
    152      -7.9679      1.00000
    153      -7.9522      1.00000
    154      -7.9521      1.00000
    155      -7.9521      1.00000
    156      -7.9521      1.00000
    157      -7.9409      1.00000
    158      -7.9409      1.00000
    159      -7.9407      1.00000
    160      -7.9407      1.00000
    161      -7.8647      1.00000
    162      -7.8647      1.00000
    163      -7.8595      1.00000
    164      -7.8595      1.00000
    165      -7.8568      1.00000
    166      -7.8568      1.00000
    167      -7.8566      1.00000
    168      -7.8565      1.00000
    169      -7.8312      1.00000
    170      -7.8312      1.00000
    171      -7.8310      1.00000
    172      -7.8310      1.00000
    173      -7.8067      1.00000
    174      -7.8066      1.00000
    175      -7.8012      1.00000
    176      -7.8012      1.00000
    177      -7.7780      1.00000
    178      -7.7780      1.00000
    179      -7.7779      1.00000
    180      -7.7779      1.00000
    181      -7.7739      1.00000
    182      -7.7739      1.00000
    183      -7.7739      1.00000
    184      -7.7738      1.00000
    185      -7.7679      1.00000
    186      -7.7679      1.00000
    187      -7.6896      1.00000
    188      -7.6895      1.00000
    189      -7.6893      1.00000
    190      -7.6893      1.00000
    191      -7.6837      1.00000
    192      -7.6837      1.00000
    193      -7.5529      1.00000
    194      -7.5529      1.00000
    195      -7.5341      1.00000
    196      -7.5341      1.00000
    197      -7.5340      1.00000
    198      -7.5340      1.00000
    199      -7.4790      1.00000
    200      -7.4790      1.00000
    201      -7.4673      1.00000
    202      -7.4673      1.00000
    203      -7.4631      1.00000
    204      -7.4631      1.00000
    205      -7.4629      1.00000
    206      -7.4629      1.00000
    207      -7.4538      1.00000
    208      -7.4538      1.00000
    209      -7.4535      1.00000
    210      -7.4535      1.00000
    211      -7.4482      1.00000
    212      -7.4482      1.00000
    213      -7.4481      1.00000
    214      -7.4481      1.00000
    215      -7.4480      1.00000
    216      -7.4480      1.00000
    217      -7.4234      1.00000
    218      -7.4234      1.00000
    219      -7.4183      1.00000
    220      -7.4183      1.00000
    221      -7.4168      1.00000
    222      -7.4168      1.00000
    223      -7.4166      1.00000
    224      -7.4166      1.00000
    225      -7.4121      1.00000
    226      -7.4121      1.00000
    227      -7.4050      1.00000
    228      -7.4050      1.00000
    229      -7.4048      1.00000
    230      -7.4048      1.00000
    231      -7.3942      1.00000
    232      -7.3942      1.00000
    233      -7.3941      1.00000
    234      -7.3941      1.00000
    235      -7.3855      1.00000
    236      -7.3855      1.00000
    237      -7.3819      1.00000
    238      -7.3818      1.00000
    239      -7.3817      1.00000
    240      -7.3817      1.00000
    241      -7.3778      1.00000
    242      -7.3777      1.00000
    243      -7.3691      1.00000
    244      -7.3691      1.00000
    245      -7.3690      1.00000
    246      -7.3690      1.00000
    247      -7.3659      1.00000
    248      -7.3659      1.00000
    249      -7.3595      1.00000
    250      -7.3594      1.00000
    251      -7.3550      1.00000
    252      -7.3550      1.00000
    253      -7.3549      1.00000
    254      -7.3548      1.00000
    255      -7.3476      1.00000
    256      -7.3476      1.00000
    257      -7.3474      1.00000
    258      -7.3474      1.00000
    259      -7.3434      1.00000
    260      -7.3434      1.00000
    261      -7.3390      1.00000
    262      -7.3390      1.00000
    263      -7.3337      1.00000
    264      -7.3337      1.00000
    265      -7.3335      1.00000
    266      -7.3335      1.00000
    267      -7.3288      1.00000
    268      -7.3287      1.00000
    269      -7.3287      1.00000
    270      -7.3286      1.00000
    271      -7.3221      1.00000
    272      -7.3221      1.00000
    273      -7.3196      1.00000
    274      -7.3195      1.00000
    275      -7.3194      1.00000
    276      -7.3194      1.00000
    277      -7.3173      1.00000
    278      -7.3173      1.00000
    279      -7.3094      1.00000
    280      -7.3093      1.00000
    281      -7.3093      1.00000
    282      -7.3092      1.00000
    283      -7.2989      1.00000
    284      -7.2989      1.00000
    285      -7.2987      1.00000
    286      -7.2987      1.00000
    287      -7.2918      1.00000
    288      -7.2918      1.00000
    289      -7.2892      1.00000
    290      -7.2892      1.00000
    291      -7.2795      1.00000
    292      -7.2795      1.00000
    293      -7.2751      1.00000
    294      -7.2750      1.00000
    295      -7.2750      1.00000
    296      -7.2750      1.00000
    297      -7.2665      1.00000
    298      -7.2664      1.00000
    299      -7.2664      1.00000
    300      -7.2663      1.00000
    301      -7.2537      1.00000
    302      -7.2537      1.00000
    303      -7.2516      1.00000
    304      -7.2515      1.00000
    305      -7.2515      1.00000
    306      -7.2515      1.00000
    307      -7.2464      1.00000
    308      -7.2464      1.00000
    309      -7.2462      1.00000
    310      -7.2462      1.00000
    311      -7.2433      1.00000
    312      -7.2433      1.00000
    313      -7.2432      1.00000
    314      -7.2431      1.00000
    315      -7.2290      1.00000
    316      -7.2289      1.00000
    317      -7.2272      1.00000
    318      -7.2272      1.00000
    319      -7.2227      1.00000
    320      -7.2226      1.00000
    321      -7.2215      1.00000
    322      -7.2215      1.00000
    323      -7.2214      1.00000
    324      -7.2213      1.00000
    325      -7.2181      1.00000
    326      -7.2180      1.00000
    327      -7.2179      1.00000
    328      -7.2179      1.00000
    329      -7.2085      1.00000
    330      -7.2085      1.00000
    331      -7.1956      1.00000
    332      -7.1956      1.00000
    333      -7.1954      1.00000
    334      -7.1954      1.00000
    335      -7.1303      1.00000
    336      -7.1303      1.00000
    337      -7.1301      1.00000
    338      -7.1301      1.00000
    339      -7.1280      1.00000
    340      -7.1280      1.00000
    341      -7.1232      1.00000
    342      -7.1232      1.00000
    343      -7.1232      1.00000
    344      -7.1232      1.00000
    345      -7.1085      1.00000
    346      -7.1085      1.00000
    347      -7.0507      1.00000
    348      -7.0507      1.00000
    349      -7.0507      1.00000
    350      -7.0507      1.00000
    351      -7.0124      1.00000
    352      -7.0124      1.00000
    353      -7.0074      1.00000
    354      -7.0074      1.00000
    355      -7.0073      1.00000
    356      -7.0072      1.00000
    357      -6.9967      1.00000
    358      -6.9967      1.00000
    359      -6.9800      1.00000
    360      -6.9800      1.00000
    361      -6.9799      1.00000
    362      -6.9799      1.00000
    363      -6.9787      1.00000
    364      -6.9786      1.00000
    365      -6.9592      1.00000
    366      -6.9592      1.00000
    367      -6.9002      1.00000
    368      -6.9002      1.00000
    369      -6.9001      1.00000
    370      -6.9001      1.00000
    371      -6.8804      1.00000
    372      -6.8803      1.00000
    373      -6.8647      1.00000
    374      -6.8647      1.00000
    375      -6.8647      1.00000
    376      -6.8647      1.00000
    377      -6.8636      1.00000
    378      -6.8636      1.00000
    379      -6.7901      1.00000
    380      -6.7901      1.00000
    381      -6.7900      1.00000
    382      -6.7900      1.00000
    383      -6.7363      1.00000
    384      -6.7362      1.00000
    385      -6.7362      1.00000
    386      -6.7361      1.00000
    387      -6.7352      1.00000
    388      -6.7352      1.00000
    389      -6.2706      1.00000
    390      -6.2705      1.00000
    391      -6.2584      1.00000
    392      -6.2583      1.00000
    393      -6.2582      1.00000
    394      -6.2581      1.00000
    395      -3.4279      1.00000
    396      -3.4279      1.00000
    397      -3.1202      1.00000
    398      -3.1201      1.00000
    399      -3.1201      1.00000
    400      -3.1200      1.00000
    401      -3.1183      1.00000
    402      -3.1183      1.00000
    403      -3.0360      1.00000
    404      -3.0360      1.00000
    405      -3.0359      1.00000
    406      -3.0359      1.00000
    407      -3.0138      1.00000
    408      -3.0138      1.00000
    409      -2.9998      1.00000
    410      -2.9998      1.00000
    411      -2.9492      1.00000
    412      -2.9492      1.00000
    413      -2.9491      1.00000
    414      -2.9490      1.00000
    415      -2.7167      1.00000
    416      -2.7165      1.00000
    417      -2.7164      1.00000
    418      -2.7162      1.00000
    419      -2.7090      1.00000
    420      -2.7090      1.00000
    421      -2.6903      1.00000
    422      -2.6902      1.00000
    423      -2.4888      1.00000
    424      -2.4888      1.00000
    425      -2.4887      1.00000
    426      -2.4887      1.00000
    427      -2.4858      1.00000
    428      -2.4858      1.00000
    429      -2.4539      1.00000
    430      -2.4539      1.00000
    431      -2.4539      1.00000
    432      -2.4538      1.00000
    433      -2.3711      1.00000
    434      -2.3711      1.00000
    435      -2.2723      1.00000
    436      -2.2723      1.00000
    437      -2.2722      1.00000
    438      -2.2722      1.00000
    439      -2.2666      1.00000
    440      -2.2666      1.00000
    441      -2.2666      1.00000
    442      -2.2665      1.00000
    443      -2.2408      1.00000
    444      -2.2408      1.00000
    445      -1.4788      1.00000
    446      -1.4788      1.00000
    447      -1.3005      1.00000
    448      -1.3005      1.00000
    449      -1.3004      1.00000
    450      -1.3004      1.00000
    451      -1.2957      1.00000
    452      -1.2957      1.00000
    453      -1.2877      1.00000
    454      -1.2877      1.00000
    455      -1.2876      1.00000
    456      -1.2876      1.00000
    457      -1.2726      1.00000
    458      -1.2726      1.00000
    459      -1.2644      1.00000
    460      -1.2644      1.00000
    461      -1.2643      1.00000
    462      -1.2643      1.00000
    463      -1.0574      1.00000
    464      -1.0574      1.00000
    465      -0.9472      1.00000
    466      -0.9472      1.00000
    467      -0.9211      1.00000
    468      -0.9211      1.00000
    469      -0.9210      1.00000
    470      -0.9210      1.00000
    471      -0.8713      1.00000
    472      -0.8713      1.00000
    473      -0.8712      1.00000
    474      -0.8712      1.00000
    475      -0.8325      1.00000
    476      -0.8325      1.00000
    477      -0.8099      1.00000
    478      -0.8099      1.00000
    479      -0.7804      1.00000
    480      -0.7804      1.00000
    481      -0.7804      1.00000
    482      -0.7804      1.00000
    483      -0.7210      1.00000
    484      -0.7210      1.00000
    485      -0.7210      1.00000
    486      -0.7210      1.00000
    487      -0.7110      1.00000
    488      -0.7109      1.00000
    489      -0.7108      1.00000
    490      -0.7107      1.00000
    491      -0.6900      1.00000
    492      -0.6900      1.00000
    493      -0.6828      1.00000
    494      -0.6828      1.00000
    495      -0.6505      1.00000
    496      -0.6504      1.00000
    497      -0.6504      1.00000
    498      -0.6504      1.00000
    499      -0.6184      1.00000
    500      -0.6183      1.00000
    501      -0.6081      1.00000
    502      -0.6081      1.00000
    503      -0.6081      1.00000
    504      -0.6080      1.00000
    505      -0.5765      1.00000
    506      -0.5765      1.00000
    507      -0.5764      1.00000
    508      -0.5764      1.00000
    509      -0.5599      1.00000
    510      -0.5599      1.00000
    511      -0.3121      1.00000
    512      -0.3121      1.00000
    513      -0.3121      1.00000
    514      -0.3121      1.00000
    515      -0.2691      1.00000
    516      -0.2691      1.00000
    517       0.0959      1.00000
    518       0.0959      1.00000
    519       0.1391      1.00000
    520       0.1391      1.00000
    521       0.1496      1.00000
    522       0.1496      1.00000
    523       0.1497      1.00000
    524       0.1497      1.00000
    525       0.1729      1.00000
    526       0.1729      1.00000
    527       0.1730      1.00000
    528       0.1730      1.00000
    529       0.3637      1.00000
    530       0.3637      1.00000
    531       0.3665      1.00000
    532       0.3665      1.00000
    533       0.3701      1.00000
    534       0.3701      1.00000
    535       0.3701      1.00000
    536       0.3701      1.00000
    537       0.5204      1.00000
    538       0.5204      1.00000
    539       0.5204      1.00000
    540       0.5205      1.00000
    541       0.5505      1.00000
    542       0.5505      1.00000
    543       0.5547      1.00000
    544       0.5547      1.00000
    545       0.5548      1.00000
    546       0.5548      1.00000
    547       0.5756      1.00000
    548       0.5756      1.00000
    549       0.6240      1.00000
    550       0.6240      1.00000
    551       0.6241      1.00000
    552       0.6241      1.00000
    553       0.6307      1.00000
    554       0.6307      1.00000
    555       0.6362      1.00000
    556       0.6362      1.00000
    557       0.6429      1.00000
    558       0.6429      1.00000
    559       0.6430      1.00000
    560       0.6430      1.00000
    561       0.6541      1.00000
    562       0.6541      1.00000
    563       0.6542      1.00000
    564       0.6542      1.00000
    565       0.6546      1.00000
    566       0.6546      1.00000
    567       0.6653      1.00000
    568       0.6653      1.00000
    569       0.6874      1.00000
    570       0.6874      1.00000
    571       0.6874      1.00000
    572       0.6874      1.00000
    573       0.8247      1.00000
    574       0.8247      1.00000
    575       0.9175      1.00000
    576       0.9175      1.00000
    577       0.9175      1.00000
    578       0.9175      1.00000
    579       0.9434      1.00000
    580       0.9434      1.00000
    581       0.9434      1.00000
    582       0.9435      1.00000
    583       1.7098      1.00000
    584       1.7098      1.00000
    585       1.7098      1.00000
    586       1.7098      1.00000
    587       2.5261      1.00000
    588       2.5261      1.00000
    589       3.3983      0.13748
    590       3.3983      0.13736
    591       3.9769      0.00000
    592       3.9769      0.00000
    593       3.9769      0.00000
    594       3.9769      0.00000
    595       3.9791      0.00000
    596       3.9791      0.00000
    597       4.0780      0.00000
    598       4.0780      0.00000
    599       4.8386      0.00000
    600       4.8386      0.00000
    601       4.8386      0.00000
    602       4.8386      0.00000
    603       4.9658      0.00000
    604       4.9658      0.00000
    605       4.9659      0.00000
    606       4.9659      0.00000
    607       4.9761      0.00000
    608       4.9761      0.00000
    609       5.0957      0.00000
    610       5.0958      0.00000
    611       5.0959      0.00000
    612       5.0959      0.00000
    613       5.1209      0.00000
    614       5.1210      0.00000
    615       5.1339      0.00000
    616       5.1339      0.00000
    617       5.1837      0.00000
    618       5.1837      0.00000
    619       5.3729      0.00000
    620       5.3729      0.00000
    621       5.3950      0.00000
    622       5.3950      0.00000
    623       5.3950      0.00000
    624       5.3950      0.00000
    625       5.3984      0.00000
    626       5.3984      0.00000
    627       5.3984      0.00000
    628       5.3984      0.00000
    629       5.4136      0.00000
    630       5.4136      0.00000
    631       5.4211      0.00000
    632       5.4211      0.00000
    633       5.4211      0.00000
    634       5.4211      0.00000
    635       5.4364      0.00000
    636       5.4364      0.00000
    637       5.4365      0.00000
    638       5.4365      0.00000
    639       5.4419      0.00000
    640       5.4419      0.00000
    641       5.4730      0.00000
    642       5.4730      0.00000
    643       5.4940      0.00000
    644       5.4940      0.00000
    645       5.4940      0.00000
    646       5.4940      0.00000
    647       5.5000      0.00000
    648       5.5000      0.00000
    649       5.5000      0.00000
    650       5.5000      0.00000
    651       5.5332      0.00000
    652       5.5332      0.00000
    653       5.5500      0.00000
    654       5.5500      0.00000
    655       5.5500      0.00000
    656       5.5500      0.00000
    657       6.2077      0.00000
    658       6.2077      0.00000
    659       6.3993      0.00000
    660       6.3993      0.00000
    661       6.3994      0.00000
    662       6.3994      0.00000
    663       6.5196      0.00000
    664       6.5196      0.00000
    665       6.7484      0.00000
    666       6.7484      0.00000
    667       6.8449      0.00000
    668       6.8449      0.00000
    669       6.8716      0.00000
    670       6.8716      0.00000
    671       6.8872      0.00000
    672       6.8872      0.00000
    673       6.8873      0.00000
    674       6.8873      0.00000
    675       6.8956      0.00000
    676       6.8956      0.00000
    677       6.8956      0.00000
    678       6.8956      0.00000
    679       6.9349      0.00000
    680       6.9349      0.00000
    681       6.9441      0.00000
    682       6.9441      0.00000
    683       6.9441      0.00000
    684       6.9441      0.00000
    685       6.9889      0.00000
    686       6.9889      0.00000
    687       6.9889      0.00000
    688       6.9890      0.00000
    689       7.1463      0.00000
    690       7.1463      0.00000
    691       7.1463      0.00000
    692       7.1463      0.00000
    693       7.2603      0.00000
    694       7.2604      0.00000
    695       7.4430      0.00000
    696       7.4431      0.00000
    697       7.4432      0.00000
    698       7.4433      0.00000
    699       7.4759      0.00000
    700       7.4759      0.00000
    701       7.4760      0.00000
    702       7.4760      0.00000
    703       7.4868      0.00000
    704       7.4869      0.00000
    705       7.5077      0.00000
    706       7.5077      0.00000
    707       7.5726      0.00000
    708       7.5726      0.00000
    709       7.5726      0.00000
    710       7.5726      0.00000
    711       7.5729      0.00000
    712       7.5730      0.00000
    713       7.6084      0.00000
    714       7.6085      0.00000
    715       7.6223      0.00000
    716       7.6223      0.00000
    717       7.6223      0.00000
    718       7.6224      0.00000
    719       7.6343      0.00000
    720       7.6343      0.00000
    721       7.6343      0.00000
    722       7.6343      0.00000
    723       7.6703      0.00000
    724       7.6703      0.00000
    725       7.6703      0.00000
    726       7.6703      0.00000
    727       7.7586      0.00000
    728       7.7586      0.00000
    729       7.7680      0.00000
    730       7.7680      0.00000
    731       7.7680      0.00000
    732       7.7680      0.00000
    733       7.7853      0.00000
    734       7.7854      0.00000
    735       7.7982      0.00000
    736       7.7982      0.00000
    737       7.7983      0.00000
    738       7.7983      0.00000
    739       7.8131      0.00000
    740       7.8132      0.00000
    741       7.8332      0.00000
    742       7.8332      0.00000
    743       7.8333      0.00000
    744       7.8333      0.00000
    745       7.9522      0.00000
    746       7.9522      0.00000
    747       7.9611      0.00000
    748       7.9611      0.00000
    749       7.9612      0.00000
    750       7.9612      0.00000
    751       7.9636      0.00000
    752       7.9636      0.00000
    753       7.9960      0.00000
    754       7.9960      0.00000
    755       8.0067      0.00000
    756       8.0067      0.00000
    757       8.0067      0.00000
    758       8.0067      0.00000
    759       8.0311      0.00000
    760       8.0311      0.00000
    761       8.0311      0.00000
    762       8.0311      0.00000
    763       8.1806      0.00000
    764       8.1806      0.00000
    765       8.1893      0.00000
    766       8.1893      0.00000
    767       8.1893      0.00000
    768       8.1893      0.00000
    769       8.2889      0.00000
    770       8.2889      0.00000
    771       8.3009      0.00000
    772       8.3009      0.00000
    773       8.3010      0.00000
    774       8.3010      0.00000
    775       8.3088      0.00000
    776       8.3088      0.00000
    777       8.3089      0.00000
    778       8.3089      0.00000
    779       8.3152      0.00000
    780       8.3152      0.00000
    781       8.3152      0.00000
    782       8.3152      0.00000
    783       8.3193      0.00000
    784       8.3193      0.00000
    785       8.3506      0.00000
    786       8.3506      0.00000
    787       8.5905      0.00000
    788       8.5905      0.00000
    789       8.5906      0.00000
    790       8.5906      0.00000
    791       8.6191      0.00000
    792       8.6191      0.00000
    793       8.6397      0.00000
    794       8.6397      0.00000
    795       8.6601      0.00000
    796       8.6601      0.00000
    797       8.6601      0.00000
    798       8.6601      0.00000
    799       8.7945      0.00000
    800       8.7945      0.00000
    801       8.7945      0.00000
    802       8.7945      0.00000
    803       8.8845      0.00000
    804       8.8846      0.00000
    805       8.8846      0.00000
    806       8.8846      0.00000
    807       8.8962      0.00000
    808       8.8962      0.00000
    809       8.8962      0.00000
    810       8.8962      0.00000
    811       8.9073      0.00000
    812       8.9073      0.00000
    813       8.9082      0.00000
    814       8.9082      0.00000
    815       8.9099      0.00000
    816       8.9099      0.00000
    817       8.9232      0.00000
    818       8.9232      0.00000
    819       8.9444      0.00000
    820       8.9444      0.00000
    821       8.9444      0.00000
    822       8.9444      0.00000
    823       8.9721      0.00000
    824       8.9721      0.00000
    825       9.0924      0.00000
    826       9.0924      0.00000
    827       9.0924      0.00000
    828       9.0924      0.00000
    829       9.1155      0.00000
    830       9.1156      0.00000
    831       9.1156      0.00000
    832       9.1156      0.00000
    833       9.1387      0.00000
    834       9.1387      0.00000
    835       9.1823      0.00000
    836       9.1823      0.00000
    837       9.4587      0.00000
[...]
 l=   3
     0.0000000     0.0000000     0.0000000     0.0000000     0.0000000     0.0000000     0.0000000
     0.0000000     0.0000000     0.0000000     0.0000000     0.0000000     0.0000000     0.0000000
     0.0000000     0.0000000     0.0000000     0.0000000     0.0000000     0.0000000     0.0000000
     0.0000000     0.0000000     0.0000000     0.0000000     0.0000000     0.0000000     0.0000000
     0.0000000     0.0000000     0.0000000     0.0000000     0.0000000     0.0000000     0.0000000
     0.0000000     0.0000000     0.0000000     0.0000000     0.0000000     0.0000000     0.0000000
     0.0000000     0.0000000     0.0000000     0.0000000     0.0000000     0.0000000     0.0000000

 Ion:   61  E_soc:     -0.1799412
 l=   1
     0.0000000    -0.0298881    -0.0299543
    -0.0298881     0.0000000    -0.0298912
    -0.0299543    -0.0298912     0.0000000
 l=   2
    -0.0000000    -0.0000284     0.0000000    -0.0000277    -0.0000535
    -0.0000284    -0.0000000    -0.0000374    -0.0000290    -0.0000123
     0.0000000    -0.0000374     0.0000000    -0.0000367     0.0000000
    -0.0000277    -0.0000290    -0.0000367     0.0000000    -0.0000121
    -0.0000535    -0.0000123     0.0000000    -0.0000121    -0.0000000
 l=   3
     0.0000000     0.0000000     0.0000000     0.0000000     0.0000000     0.0000000     0.0000000
     0.0000000     0.0000000     0.0000000     0.0000000     0.0000000     0.0000000     0.0000000
     0.0000000     0.0000000     0.0000000     0.0000000     0.0000000     0.0000000     0.0000000
     0.0000000     0.0000000     0.0000000     0.0000000     0.0000000     0.0000000     0.0000000
     0.0000000     0.0000000     0.0000000     0.0000000     0.0000000     0.0000000     0.0000000
     0.0000000     0.0000000     0.0000000     0.0000000     0.0000000     0.0000000     0.0000000
     0.0000000     0.0000000     0.0000000     0.0000000     0.0000000     0.0000000     0.0000000

 Ion:   62  E_soc:     -0.1799410
 l=   1
    -0.0000000    -0.0299534    -0.0298876
    -0.0299534     0.0000000    -0.0298924
    -0.0298876    -0.0298924     0.0000000
 l=   2
     0.0000000    -0.0000285     0.0000000    -0.0000290    -0.0000497
    -0.0000285     0.0000000    -0.0000395    -0.0000277    -0.0000140
     0.0000000    -0.0000395     0.0000000    -0.0000364     0.0000000
    -0.0000290    -0.0000277    -0.0000364     0.0000000    -0.0000122
    -0.0000497    -0.0000140     0.0000000    -0.0000122    -0.0000000
 l=   3
     0.0000000     0.0000000     0.0000000     0.0000000     0.0000000     0.0000000     0.0000000
     0.0000000     0.0000000     0.0000000     0.0000000     0.0000000     0.0000000     0.0000000
     0.0000000     0.0000000     0.0000000     0.0000000     0.0000000     0.0000000     0.0000000
     0.0000000     0.0000000     0.0000000     0.0000000     0.0000000     0.0000000     0.0000000
     0.0000000     0.0000000     0.0000000     0.0000000     0.0000000     0.0000000     0.0000000
     0.0000000     0.0000000     0.0000000     0.0000000     0.0000000     0.0000000     0.0000000
     0.0000000     0.0000000     0.0000000     0.0000000     0.0000000     0.0000000     0.0000000

 Ion:   63  E_soc:     -0.1820981
 l=   1
     0.0000000    -0.0303065    -0.0303101
    -0.0303065     0.0000000    -0.0302249
    -0.0303101    -0.0302249    -0.0000000
 l=   2
     0.0000000    -0.0000254     0.0000000    -0.0000257    -0.0000435
    -0.0000254     0.0000000    -0.0000329    -0.0000257    -0.0000106
     0.0000000    -0.0000329     0.0000000    -0.0000328     0.0000000
    -0.0000257    -0.0000257    -0.0000328    -0.0000000    -0.0000109
    -0.0000435    -0.0000106     0.0000000    -0.0000109     0.0000000
 l=   3
     0.0000000     0.0000000     0.0000000     0.0000000     0.0000000     0.0000000     0.0000000
     0.0000000     0.0000000     0.0000000     0.0000000     0.0000000     0.0000000     0.0000000
     0.0000000     0.0000000     0.0000000     0.0000000     0.0000000     0.0000000     0.0000000
     0.0000000     0.0000000     0.0000000     0.0000000     0.0000000     0.0000000     0.0000000
     0.0000000     0.0000000     0.0000000     0.0000000     0.0000000     0.0000000     0.0000000
     0.0000000     0.0000000     0.0000000     0.0000000     0.0000000     0.0000000     0.0000000
     0.0000000     0.0000000     0.0000000     0.0000000     0.0000000     0.0000000     0.0000000

 Ion:   64  E_soc:     -0.1799388
 l=   1
     0.0000000    -0.0299543    -0.0298858
    -0.0299543     0.0000000    -0.0298923
    -0.0298858    -0.0298923     0.0000000
 l=   2
    -0.0000000    -0.0000285     0.0000000    -0.0000290    -0.0000497
    -0.0000285     0.0000000    -0.0000394    -0.0000277    -0.0000140
     0.0000000    -0.0000394     0.0000000    -0.0000365     0.0000000
    -0.0000290    -0.0000277    -0.0000365     0.0000000    -0.0000122
    -0.0000497    -0.0000140     0.0000000    -0.0000122    -0.0000000
 l=   3
     0.0000000     0.0000000     0.0000000     0.0000000     0.0000000     0.0000000     0.0000000
     0.0000000     0.0000000     0.0000000     0.0000000     0.0000000     0.0000000     0.0000000
     0.0000000     0.0000000     0.0000000     0.0000000     0.0000000     0.0000000     0.0000000
     0.0000000     0.0000000     0.0000000     0.0000000     0.0000000     0.0000000     0.0000000
     0.0000000     0.0000000     0.0000000     0.0000000     0.0000000     0.0000000     0.0000000
     0.0000000     0.0000000     0.0000000     0.0000000     0.0000000     0.0000000     0.0000000
     0.0000000     0.0000000     0.0000000     0.0000000     0.0000000     0.0000000     0.0000000

 Ion:   65  E_soc:     -0.1820942
 l=   1
     0.0000000    -0.0303089    -0.0303085
    -0.0303089     0.0000000    -0.0302226
    -0.0303085    -0.0302226     0.0000000
 l=   2
     0.0000000    -0.0000254     0.0000000    -0.0000257    -0.0000434
    -0.0000254    -0.0000000    -0.0000327    -0.0000257    -0.0000106
     0.0000000    -0.0000327     0.0000000    -0.0000327     0.0000000
    -0.0000257    -0.0000257    -0.0000327     0.0000000    -0.0000109
    -0.0000434    -0.0000106     0.0000000    -0.0000109    -0.0000000
 l=   3
     0.0000000     0.0000000     0.0000000     0.0000000     0.0000000     0.0000000     0.0000000
     0.0000000     0.0000000     0.0000000     0.0000000     0.0000000     0.0000000     0.0000000
     0.0000000     0.0000000     0.0000000     0.0000000     0.0000000     0.0000000     0.0000000
     0.0000000     0.0000000     0.0000000     0.0000000     0.0000000     0.0000000     0.0000000
     0.0000000     0.0000000     0.0000000     0.0000000     0.0000000     0.0000000     0.0000000
     0.0000000     0.0000000     0.0000000     0.0000000     0.0000000     0.0000000     0.0000000
     0.0000000     0.0000000     0.0000000     0.0000000     0.0000000     0.0000000     0.0000000



 total charge     

# of ion       s       p       d       tot
------------------------------------------
    1        0.457   0.307   9.502  10.267
    2        0.466   0.320   9.501  10.287
    3        0.466   0.320   9.501  10.287
    4        0.465   0.320   9.501  10.286
    5        0.466   0.320   9.501  10.287
    6        0.465   0.320   9.501  10.286
    7        0.465   0.320   9.501  10.286
    8        0.464   0.317   9.502  10.283
    9        0.466   0.320   9.501  10.287
   10        0.457   0.307   9.502  10.267
   11        0.465   0.320   9.501  10.286
   12        0.466   0.320   9.501  10.287
   13        0.465   0.320   9.501  10.286
   14        0.466   0.320   9.501  10.287
   15        0.464   0.317   9.502  10.283
   16        0.465   0.320   9.501  10.286
   17        0.465   0.320   9.501  10.286
   18        0.466   0.320   9.501  10.287
   19        0.464   0.317   9.502  10.283
   20        0.465   0.320   9.501  10.286
   21        0.466   0.320   9.501  10.287
   22        0.457   0.307   9.502  10.267
   23        0.465   0.320   9.501  10.286
   24        0.466   0.320   9.501  10.287
   25        0.466   0.320   9.501  10.287
   26        0.465   0.320   9.501  10.286
   27        0.465   0.320   9.501  10.286
   28        0.464   0.317   9.502  10.283
   29        0.457   0.307   9.502  10.267
   30        0.466   0.320   9.501  10.287
   31        0.466   0.320   9.501  10.287
   32        0.465   0.320   9.501  10.286
   33        0.694   0.191   9.471  10.357
   34        1.309   2.116   0.023   3.448
   35        1.322   2.088   0.023   3.433
   36        1.309   2.113   0.022   3.444
   37        1.309   2.116   0.023   3.448
   38        1.309   2.116   0.023   3.448
   39        1.322   2.088   0.023   3.433
   40        1.309   2.113   0.022   3.444
   41        1.309   2.116   0.023   3.448
   42        1.308   2.112   0.022   3.442
   43        1.309   2.114   0.023   3.446
   44        1.309   2.114   0.023   3.446
   45        1.308   2.112   0.022   3.442
   46        1.309   2.114   0.023   3.446
   47        1.308   2.112   0.022   3.442
   48        1.308   2.112   0.022   3.442
   49        1.309   2.114   0.023   3.446
   50        1.309   2.116   0.023   3.448
   51        1.309   2.116   0.023   3.448
   52        1.309   2.113   0.022   3.444
   53        1.309   2.113   0.022   3.444
   54        1.322   2.088   0.023   3.433
   55        1.322   2.088   0.023   3.433
   56        1.309   2.116   0.023   3.448
   57        1.309   2.116   0.023   3.448
   58        1.309   2.113   0.022   3.444
   59        1.309   2.116   0.023   3.448
   60        1.309   2.113   0.022   3.444
   61        1.309   2.116   0.023   3.448
   62        1.309   2.116   0.023   3.448
   63        1.322   2.088   0.023   3.433
   64        1.309   2.116   0.023   3.448
   65        1.322   2.088   0.023   3.433
--------------------------------------------------
tot         57.506  77.872 314.233 449.611



 magnetization (x)

# of ion       s       p       d       tot
------------------------------------------
    1        0.000  -0.000   0.000   0.000
    2        0.000  -0.000   0.000   0.000
    3        0.000   0.000   0.000   0.000
    4       -0.000   0.000   0.000   0.000
    5        0.000  -0.000   0.000   0.000
    6       -0.000   0.000   0.000   0.000
    7        0.000  -0.000   0.000   0.000
    8       -0.000  -0.000   0.000   0.000
    9       -0.000   0.000   0.000   0.000
   10       -0.000  -0.000   0.000  -0.000
   11        0.000   0.000  -0.000  -0.000
   12        0.000  -0.000   0.000   0.000
   13       -0.000   0.000   0.000  -0.000
   14        0.000  -0.000   0.000   0.000
   15       -0.000   0.000   0.000   0.000
   16        0.000  -0.000   0.000   0.000
   17        0.000   0.000   0.000   0.000
   18       -0.000   0.000   0.000   0.000
   19        0.000   0.000   0.000   0.000
   20        0.000  -0.000   0.000   0.000
   21       -0.000   0.000   0.000   0.000
   22       -0.000  -0.000   0.000   0.000
   23       -0.000   0.000  -0.000  -0.000
   24       -0.000  -0.000   0.000   0.000
   25        0.000   0.000   0.000   0.000
   26       -0.000   0.000   0.000   0.000
   27       -0.000  -0.000   0.000  -0.000
   28       -0.000  -0.000   0.000   0.000
   29        0.000  -0.000   0.000   0.000
   30        0.000  -0.000   0.000   0.000
   31       -0.000  -0.000   0.000   0.000
   32       -0.000   0.000   0.000  -0.000
   33       -0.000  -0.000   0.000   0.000
   34        0.000   0.000  -0.000   0.000
   35       -0.000  -0.000  -0.000  -0.000
   36       -0.000   0.000  -0.000  -0.000
   37        0.000  -0.000  -0.000  -0.000
   38       -0.000   0.000  -0.000   0.000
   39        0.000  -0.000  -0.000  -0.000
   40        0.000   0.000   0.000   0.000
   41       -0.000   0.000  -0.000  -0.000
   42       -0.000  -0.000  -0.000  -0.000
   43       -0.000   0.000  -0.000   0.000
   44       -0.000   0.000  -0.000  -0.000
   45        0.000   0.000  -0.000   0.000
   46        0.000   0.000  -0.000   0.000
   47        0.000  -0.000  -0.000  -0.000
   48        0.000   0.000  -0.000   0.000
   49        0.000   0.000  -0.000   0.000
   50       -0.000  -0.000   0.000  -0.000
   51        0.000   0.000  -0.000   0.000
   52       -0.000  -0.000  -0.000  -0.000
   53        0.000   0.000   0.000   0.000
   54        0.000  -0.000   0.000  -0.000
   55       -0.000   0.000   0.000   0.000
   56        0.000   0.000   0.000   0.000
   57       -0.000   0.000  -0.000  -0.000
   58       -0.000   0.000  -0.000  -0.000
   59       -0.000   0.000  -0.000  -0.000
   60        0.000  -0.000  -0.000  -0.000
   61        0.000  -0.000   0.000   0.000
   62        0.000   0.000  -0.000   0.000
   63       -0.000   0.000   0.000   0.000
   64        0.000   0.000  -0.000   0.000
   65       -0.000  -0.000  -0.000  -0.000
--------------------------------------------------
tot         -0.000   0.000   0.001   0.001



 magnetization (y)

# of ion       s       p       d       tot
------------------------------------------
    1        0.000   0.000   0.000   0.000
    2        0.000   0.000   0.000   0.000
    3        0.000   0.000   0.000   0.000
    4        0.000   0.000   0.000   0.000
    5       -0.000  -0.000   0.000  -0.000
    6       -0.000   0.000  -0.000  -0.000
    7       -0.000  -0.000  -0.000  -0.000
    8        0.000  -0.000   0.000   0.000
    9       -0.000   0.000   0.000   0.000
   10        0.000   0.000   0.000   0.000
   11       -0.000   0.000   0.000   0.000
   12        0.000  -0.000  -0.000  -0.000
   13       -0.000   0.000   0.000   0.000
   14        0.000   0.000  -0.000   0.000
   15        0.000  -0.000   0.000   0.000
   16       -0.000  -0.000   0.000  -0.000
   17       -0.000   0.000   0.000   0.000
   18        0.000   0.000   0.000   0.000
   19        0.000   0.000   0.000   0.000
   20        0.000   0.000  -0.000  -0.000
   21       -0.000  -0.000   0.000   0.000
   22        0.000   0.000  -0.000   0.000
   23       -0.000   0.000   0.000   0.000
   24       -0.000  -0.000   0.000  -0.000
   25       -0.000   0.000  -0.000  -0.000
   26        0.000  -0.000  -0.000  -0.000
   27        0.000   0.000  -0.000   0.000
   28        0.000   0.000  -0.000  -0.000
   29       -0.000   0.000  -0.000  -0.000
   30       -0.000   0.000   0.000   0.000
   31        0.000   0.000   0.000   0.000
   32        0.000  -0.000   0.000   0.000
   33       -0.000  -0.000  -0.000  -0.000
   34        0.000  -0.000  -0.000  -0.000
   35       -0.000  -0.000  -0.000  -0.000
   36       -0.000  -0.000  -0.000  -0.000
   37        0.000  -0.000   0.000   0.000
   38        0.000  -0.000  -0.000   0.000
   39       -0.000  -0.000   0.000  -0.000
   40        0.000  -0.000  -0.000  -0.000
   41       -0.000  -0.000  -0.000  -0.000
   42        0.000   0.000  -0.000   0.000
   43       -0.000  -0.000   0.000  -0.000
   44       -0.000  -0.000  -0.000  -0.000
   45       -0.000   0.000  -0.000  -0.000
   46        0.000   0.000  -0.000   0.000
   47       -0.000  -0.000  -0.000  -0.000
   48       -0.000  -0.000  -0.000  -0.000
   49        0.000  -0.000  -0.000  -0.000
   50        0.000  -0.000  -0.000   0.000
   51       -0.000   0.000   0.000   0.000
   52        0.000  -0.000   0.000   0.000
   53        0.000   0.000   0.000   0.000
   54       -0.000   0.000   0.000  -0.000
   55       -0.000  -0.000  -0.000  -0.000
   56        0.000   0.000   0.000   0.000
   57        0.000  -0.000   0.000  -0.000
   58       -0.000  -0.000  -0.000  -0.000
   59        0.000   0.000   0.000   0.000
   60        0.000   0.000   0.000   0.000
   61        0.000  -0.000  -0.000  -0.000
   62        0.000  -0.000  -0.000   0.000
   63        0.000   0.000   0.000   0.000
   64        0.000  -0.000   0.000   0.000
   65        0.000  -0.000   0.000  -0.000
--------------------------------------------------
tot          0.000  -0.000   0.000   0.000



 magnetization (z)

# of ion       s       p       d       tot
------------------------------------------
    1        0.000  -0.000   0.000   0.000
    2        0.000  -0.000  -0.000  -0.000
    3        0.000   0.000   0.000   0.000
    4        0.000  -0.000  -0.000  -0.000
    5       -0.000   0.000   0.000   0.000
    6       -0.000   0.000   0.000   0.000
    7        0.000  -0.000   0.000   0.000
    8       -0.000   0.000  -0.000  -0.000
    9        0.000  -0.000  -0.000  -0.000
   10       -0.000   0.000  -0.000  -0.000
   11       -0.000   0.000  -0.000  -0.000
   12       -0.000  -0.000   0.000   0.000
   13       -0.000   0.000  -0.000  -0.000
   14        0.000   0.000  -0.000   0.000
   15       -0.000   0.000   0.000   0.000
   16       -0.000   0.000   0.000  -0.000
   17       -0.000   0.000  -0.000  -0.000
   18        0.000   0.000  -0.000  -0.000
   19        0.000  -0.000  -0.000  -0.000
   20       -0.000  -0.000   0.000   0.000
   21        0.000   0.000  -0.000  -0.000
   22       -0.000   0.000  -0.000  -0.000
   23        0.000   0.000  -0.000  -0.000
   24       -0.000   0.000  -0.000  -0.000
   25       -0.000  -0.000  -0.000  -0.000
   26       -0.000  -0.000  -0.000  -0.000
   27       -0.000  -0.000  -0.000  -0.000
   28       -0.000   0.000   0.000   0.000
   29        0.000   0.000  -0.000  -0.000
   30       -0.000   0.000  -0.000  -0.000
   31       -0.000  -0.000   0.000   0.000
   32       -0.000   0.000  -0.000  -0.000
   33       -0.000  -0.000  -0.000  -0.000
   34       -0.000   0.000   0.000   0.000
   35        0.000  -0.000  -0.000  -0.000
   36        0.000   0.000   0.000   0.000
   37       -0.000   0.000   0.000  -0.000
   38       -0.000  -0.000   0.000  -0.000
   39        0.000   0.000   0.000   0.000
   40       -0.000   0.000   0.000   0.000
   41        0.000  -0.000  -0.000  -0.000
   42       -0.000   0.000   0.000  -0.000
   43       -0.000  -0.000  -0.000  -0.000
   44       -0.000  -0.000   0.000  -0.000
   45       -0.000   0.000  -0.000   0.000
   46       -0.000  -0.000   0.000  -0.000
   47        0.000   0.000  -0.000   0.000
   48        0.000   0.000   0.000   0.000
   49        0.000   0.000   0.000   0.000
   50        0.000   0.000   0.000   0.000
   51       -0.000   0.000   0.000   0.000
   52       -0.000  -0.000   0.000  -0.000
   53        0.000  -0.000   0.000   0.000
   54       -0.000  -0.000   0.000  -0.000
   55       -0.000   0.000   0.000  -0.000
   56        0.000   0.000   0.000   0.000
   57       -0.000   0.000   0.000  -0.000
   58       -0.000   0.000  -0.000   0.000
   59        0.000   0.000  -0.000   0.000
   60        0.000   0.000  -0.000   0.000
   61        0.000   0.000  -0.000   0.000
   62       -0.000  -0.000   0.000  -0.000
   63       -0.000   0.000   0.000   0.000
   64       -0.000   0.000  -0.000   0.000
   65       -0.000  -0.000  -0.000  -0.000
--------------------------------------------------
tot         -0.000   0.000  -0.000  -0.000


 total amount of memory used by VASP MPI-rank0   175887. kBytes
=======================================================================

   base      :      30000. kBytes
   nonl-proj :      41091. kBytes
   fftplans  :      14448. kBytes
   grid      :      37158. kBytes
   one-center:       1057. kBytes
   HF        :        129. kBytes
   nonlr-proj:      12683. kBytes
   wavefun   :      39321. kBytes

  
  
 General timing and accounting informations for this job:
 ========================================================
  
                  Total CPU time used (sec):     3081.808
                            User time (sec):     3066.637
                          System time (sec):       15.170
                         Elapsed time (sec):     3116.608
  
                   Maximum memory used (kb):     1012608.
                   Average memory used (kb):           0.
  
                          Minor page faults:      1146671
                          Major page faults:            0
                 Voluntary context switches:        75855
