 vasp.5.4.4.18Apr17-6-g9f103f2a35 (build Oct 13 2020 16:44:00) complex           
 executed on        HPECrayEX-GNU date 2020.11.03  21:13:22
 running on  256 total cores
 distrk:  each k-point on  128 cores,    2 groups
 distr:  one band on NCORES_PER_BAND=  16 cores,    8 groups


--------------------------------------------------------------------------------------------------------


 INCAR:
 POTCAR:    PAW_PBE Cd 06Sep2000                  
 POTCAR:    PAW_PBE Te 08Apr2002                  

 ----------------------------------------------------------------------------- 
|                                                                             |
|           W    W    AA    RRRRR   N    N  II  N    N   GGGG   !!!           |
|           W    W   A  A   R    R  NN   N  II  NN   N  G    G  !!!           |
|           W    W  A    A  R    R  N N  N  II  N N  N  G       !!!           |
|           W WW W  AAAAAA  RRRRR   N  N N  II  N  N N  G  GGG   !            |
|           WW  WW  A    A  R   R   N   NN  II  N   NN  G    G                |
|           W    W  A    A  R    R  N    N  II  N    N   GGGG   !!!           |
|                                                                             |
|      You have enabled k-point parallelism (KPAR>1).                         |
|      This developmental code was originally  written by Paul Kent at ORNL,  |
|      and carefully double checked in Vienna.                                |
|      GW as well as linear response parallelism added by Martijn Marsman     |
|      and Georg Kresse.                                                      |
|      Carefully verify results versus KPAR=1.                                |
|      Report problems to Paul Kent and Vienna.                               |
|                                                                             |
 ----------------------------------------------------------------------------- 

 POTCAR:    PAW_PBE Cd 06Sep2000                  
   VRHFIN =Cd : s2 d10                                                          
   LEXCH  = PE                                                                  
   EATOM  =  1293.1815 eV,   95.0462 Ry                                         
                                                                                
   TITEL  = PAW_PBE Cd 06Sep2000                                                
   LULTRA =        F    use ultrasoft PP ?                                      
   IUNSCR =        1    unscreen: 0-lin 1-nonlin 2-no                           
   RPACOR =    2.000    partial core radius                                     
   POMASS =  112.411; ZVAL   =   12.000    mass and valenz                      
   RCORE  =    2.300    outmost cutoff radius                                   
   RWIGS  =    2.980; RWIGS  =    1.577    wigner-seitz radius (au A)           
   ENMAX  =  274.336; ENMIN  =  205.752 eV                                      
   RCLOC  =    2.054    cutoff for local pot                                    
   LCOR   =        T    correct aug charges                                     
   LPAW   =        T    paw PP                                                  
   EAUG   =  456.106                                                            
   DEXC   =    0.000                                                            
   RMAX   =    2.358    core radius for proj-oper                               
   RAUG   =    1.300    factor for augmentation sphere                          
   RDEP   =    2.450    radius for radial grids                                 
   RDEPT  =    1.955    core radius for aug-charge                              
                                                                                
   Atomic configuration                                                         
   12 entries                                                                   
     n  l   j            E        occ.                                          
     1  0  0.50    -26519.7817   2.0000                                         
     2  0  0.50     -3936.9612   2.0000                                         
     2  1  1.50     -3532.2230   6.0000                                         
     3  0  0.50      -733.7908   2.0000                                         
     3  1  1.50      -601.0792   6.0000                                         
     3  2  2.50      -393.5307  10.0000                                         
     4  0  0.50      -105.8977   2.0000                                         
     4  1  1.50       -66.9488   6.0000                                         
     4  2  2.50       -11.7331  10.0000                                         
     5  0  0.50        -5.6592   2.0000                                         
     5  1  0.50        -1.3606   0.0000                                         
     4  3  2.50        -1.3606   0.0000                                         
   Description                                                                  
     l       E           TYP  RCUT    TYP  RCUT                                 
     2    -11.7331479     23  2.300                                             
     2    -13.0937305     23  2.300                                             
     0     -5.6591502     23  2.300                                             
     0     -1.5561433     23  2.300                                             
     1     -2.7211652     23  2.300                                             
     1      8.3548275     23  2.300                                             
  local pseudopotential read in
  partial core-charges read in
  partial kinetic energy density read in
  atomic valenz-charges read in
  non local Contribution for L=           2  read in
    real space projection operators read in
  non local Contribution for L=           2  read in
    real space projection operators read in
  non local Contribution for L=           0  read in
    real space projection operators read in
  non local Contribution for L=           0  read in
    real space projection operators read in
  non local Contribution for L=           1  read in
    real space projection operators read in
  non local Contribution for L=           1  read in
    real space projection operators read in
    PAW grid and wavefunctions read in

   number of l-projection  operators is LMAX  =           6
   number of lm-projection operators is LMMAX =          18

 POTCAR:    PAW_PBE Te 08Apr2002                  
   VRHFIN =Te: s2p4                                                             
   LEXCH  = PE                                                                  
   EATOM  =   223.2721 eV,   16.4100 Ry                                         
                                                                                
   TITEL  = PAW_PBE Te 08Apr2002                                                
   LULTRA =        F    use ultrasoft PP ?                                      
   IUNSCR =        1    unscreen: 0-lin 1-nonlin 2-no                           
   RPACOR =    2.200    partial core radius                                     
   POMASS =  127.600; ZVAL   =    6.000    mass and valenz                      
   RCORE  =    2.300    outmost cutoff radius                                   
   RWIGS  =    2.900; RWIGS  =    1.535    wigner-seitz radius (au A)           
   ENMAX  =  174.982; ENMIN  =  131.236 eV                                      
   ICORE  =        3    local potential                                         
   LCOR   =        T    correct aug charges                                     
   LPAW   =        T    paw PP                                                  
   EAUG   =  368.792                                                            
   DEXC   =    0.000                                                            
   RMAX   =    2.345    core radius for proj-oper                               
   RAUG   =    1.300    factor for augmentation sphere                          
   RDEP   =    2.397    radius for radial grids                                 
   RDEPT  =    2.174    core radius for aug-charge                              
                                                                                
   Atomic configuration                                                         
   13 entries                                                                   
     n  l   j            E        occ.                                          
     1  0  0.50    -31621.2075   2.0000                                         
     2  0  0.50     -4848.7941   2.0000                                         
     2  1  1.50     -4352.1960   6.0000                                         
     3  0  0.50      -964.9612   2.0000                                         
     3  1  1.50      -803.6179   6.0000                                         
     3  2  2.50      -559.8710  10.0000                                         
     4  0  0.50      -164.3522   2.0000                                         
     4  1  1.50      -114.3756   6.0000                                         
     4  2  2.50       -41.6483  10.0000                                         
     5  0  0.50       -15.1072   2.0000                                         
     5  1  0.50        -5.9526   4.0000                                         
     5  2  1.50        -5.4423   0.0000                                         
     4  3  2.50        -5.4423   0.0000                                         
   Description                                                                  
     l       E           TYP  RCUT    TYP  RCUT                                 
     0    -15.1072389     23  2.300                                             
     0    -16.4678215     23  2.300                                             
     1     -5.9526306     23  2.300                                             
     1     -2.4873968     23  2.300                                             
     2     -5.4423304     23  2.300                                             
     3     -1.3605826     23  2.300                                             
  local pseudopotential read in
  partial core-charges read in
  partial kinetic energy density read in
  atomic valenz-charges read in
  non local Contribution for L=           0  read in
    real space projection operators read in
  non local Contribution for L=           0  read in
    real space projection operators read in
  non local Contribution for L=           1  read in
    real space projection operators read in
  non local Contribution for L=           1  read in
    real space projection operators read in
  non local Contribution for L=           2  read in
    real space projection operators read in
    PAW grid and wavefunctions read in

   number of l-projection  operators is LMAX  =           5
   number of lm-projection operators is LMMAX =          13


 ----------------------------------------------------------------------------- 
|                                                                             |
|  ADVICE TO THIS USER RUNNING 'VASP/VAMP'   (HEAR YOUR MASTER'S VOICE ...):  |
|                                                                             |
|      You have a (more or less) 'large supercell' and for larger cells       |
|      it might be more efficient to use real space projection opertators     |
|      So try LREAL= Auto  in the INCAR   file.                               |
|      Mind:          For very  accurate calculation you might also keep the  |
|      reciprocal projection scheme          (i.e. LREAL=.FALSE.)             |
|                                                                             |
 ----------------------------------------------------------------------------- 

  PAW_PBE Cd 06Sep2000                  :
 energy of atom  1       EATOM=-1293.1815
 kinetic energy error for atom=    0.0084 (will be added to EATOM!!)
  PAW_PBE Te 08Apr2002                  :
 energy of atom  2       EATOM= -223.2721
 kinetic energy error for atom=    0.0008 (will be added to EATOM!!)


 POSCAR: Cd33 Te32                               
  positions in direct lattice
  No initial velocities read in
 exchange correlation table for  LEXCH =        8
   RHO(1)=    0.500       N(1)  =     2000
   RHO(2)=  100.500       N(2)  =     4000



--------------------------------------------------------------------------------------------------------


 ion  position               nearest neighbor table
   1  0.004  0.996  0.004-  44 2.79  35 2.93  54 2.93  65 2.93  33 2.94
   2  0.001  0.999  0.497-  55 2.82  34 2.82  64 2.82  45 2.84
   3  0.001  0.503  0.001-  63 2.82  56 2.82  37 2.82  42 2.84
   4  1.000  0.501  0.499-  57 2.82  62 2.82  36 2.82  43 2.84
   5  0.497  0.999  0.001-  39 2.82  50 2.82  61 2.82  48 2.84
   6  0.499  0.000  0.499-  38 2.82  51 2.82  60 2.82  49 2.84
   7  0.499  0.501  1.000-  41 2.82  59 2.82  52 2.82  46 2.84
   8  0.501  0.499  0.501-  47 2.82  40 2.83  53 2.83  58 2.83
   9  0.001  0.251  0.253-  54 2.82  34 2.82  62 2.82  42 2.84
  10  0.004  0.254  0.746-  43 2.79  35 2.93  55 2.93  63 2.93  33 2.94
  11  1.000  0.749  0.251-  56 2.82  64 2.82  36 2.82  44 2.84
  12  0.001  0.747  0.749-  65 2.82  57 2.82  37 2.82  45 2.84
  13  0.499  0.250  0.251-  38 2.82  50 2.82  58 2.82  46 2.84
  14  0.497  0.251  0.749-  39 2.82  51 2.82  59 2.82  47 2.84
  15  0.501  0.751  0.249-  48 2.82  40 2.83  52 2.83  60 2.83
  16  0.499  0.749  0.750-  41 2.82  61 2.82  53 2.82  49 2.84
  17  0.251  0.000  0.251-  34 2.82  50 2.82  60 2.82  44 2.84
  18  0.253  0.999  0.749-  35 2.82  51 2.82  61 2.82  45 2.84
  19  0.249  0.499  0.249-  42 2.82  36 2.83  52 2.83  58 2.83
  20  0.251  0.501  0.750-  37 2.82  59 2.82  53 2.82  43 2.84
  21  0.749  0.999  0.253-  54 2.82  38 2.82  64 2.82  48 2.84
  22  0.746  0.996  0.746-  49 2.79  39 2.93  55 2.93  65 2.93  33 2.94
  23  0.750  0.501  0.251-  56 2.82  62 2.82  40 2.82  46 2.84
  24  0.749  0.503  0.749-  63 2.82  57 2.82  41 2.82  47 2.84
  25  0.253  0.251  0.001-  35 2.82  50 2.82  59 2.82  42 2.84
  26  0.251  0.250  0.499-  34 2.82  51 2.82  58 2.82  43 2.84
  27  0.251  0.749  1.000-  37 2.82  61 2.82  52 2.82  44 2.84
  28  0.249  0.751  0.501-  45 2.82  36 2.83  53 2.83  60 2.83
  29  0.746  0.254  0.004-  46 2.79  39 2.93  54 2.93  63 2.93  33 2.94
  30  0.749  0.251  0.497-  55 2.82  38 2.82  62 2.82  47 2.84
  31  0.749  0.747  0.001-  65 2.82  56 2.82  41 2.82  48 2.84
  32  0.750  0.749  0.499-  57 2.82  64 2.82  40 2.82  49 2.84
  33  0.875  0.125  0.875-   1 2.94  10 2.94  22 2.94  29 2.94  35 3.37  39 3.37  54 3.37  55 3.37
                            63 3.37  65 3.37
  34  0.127  0.125  0.375-  17 2.82  26 2.82   2 2.82   9 2.82
  35  0.133  0.125  0.875-  18 2.82  25 2.82  10 2.93   1 2.93  33 3.37
  36  0.126  0.625  0.375-   4 2.82  11 2.82  19 2.83  28 2.83
  37  0.127  0.625  0.875-  20 2.82  27 2.82   3 2.82  12 2.82
  38  0.623  0.125  0.375-  13 2.82   6 2.82  21 2.82  30 2.82
  39  0.617  0.125  0.875-  14 2.82   5 2.82  22 2.93  29 2.93  33 3.37
  40  0.624  0.625  0.375-  23 2.82  32 2.82   8 2.83  15 2.83
  41  0.623  0.625  0.875-   7 2.82  16 2.82  31 2.82  24 2.82
  42  0.125  0.375  0.125-  19 2.82   9 2.84  25 2.84   3 2.84
  43  0.127  0.377  0.623-  10 2.79   4 2.84  26 2.84  20 2.84
  44  0.127  0.873  0.127-   1 2.79  11 2.84  17 2.84  27 2.84
  45  0.125  0.875  0.625-  28 2.82  18 2.84   2 2.84  12 2.84
  46  0.623  0.377  0.127-  29 2.79  13 2.84  23 2.84   7 2.84
  47  0.625  0.375  0.625-   8 2.82  14 2.84  24 2.84  30 2.84
  48  0.625  0.875  0.125-  15 2.82  21 2.84   5 2.84  31 2.84
  49  0.623  0.873  0.623-  22 2.79  32 2.84   6 2.84  16 2.84
  50  0.375  0.125  0.127-  17 2.82  13 2.82   5 2.82  25 2.82
  51  0.375  0.125  0.623-   6 2.82  26 2.82  18 2.82  14 2.82
  52  0.375  0.625  0.126-   7 2.82  27 2.82  19 2.83  15 2.83
  53  0.375  0.625  0.624-  16 2.82  20 2.82   8 2.83  28 2.83
  54  0.875  0.125  0.133-   9 2.82  21 2.82   1 2.93  29 2.93  33 3.37
  55  0.875  0.125  0.617-  30 2.82   2 2.82  22 2.93  10 2.93  33 3.37
  56  0.875  0.625  0.127-  11 2.82  23 2.82   3 2.82  31 2.82
  57  0.875  0.625  0.623-   4 2.82  32 2.82  12 2.82  24 2.82
  58  0.375  0.376  0.375-  26 2.82  13 2.82  19 2.83   8 2.83
  59  0.375  0.377  0.875-   7 2.82  20 2.82  14 2.82  25 2.82
  60  0.375  0.874  0.375-   6 2.82  17 2.82  15 2.83  28 2.83
  61  0.375  0.873  0.875-  16 2.82  27 2.82   5 2.82  18 2.82
  62  0.875  0.377  0.375-   4 2.82  23 2.82   9 2.82  30 2.82
  63  0.875  0.383  0.875-  24 2.82   3 2.82  10 2.93  29 2.93  33 3.37
  64  0.875  0.873  0.375-  11 2.82  32 2.82   2 2.82  21 2.82
  65  0.875  0.867  0.875-  12 2.82  31 2.82   1 2.93  22 2.93  33 3.37


IMPORTANT INFORMATION: All symmetrisations will be switched off!
NOSYMM: (Re-)initialisation of all symmetry stuff for point group C_1.



 KPOINTS: Automatically generated mesh            
  k-points in reciprocal lattice
Space group operators:
 irot       det(A)        alpha          n_x          n_y          n_z        tau_x        tau_y        tau_z
    1     1.000000     0.000000     1.000000     0.000000     0.000000     0.000000     0.000000     0.000000

 ----------------------------------------------------------------------------- 
|                                                                             |
|           W    W    AA    RRRRR   N    N  II  N    N   GGGG   !!!           |
|           W    W   A  A   R    R  NN   N  II  NN   N  G    G  !!!           |
|           W    W  A    A  R    R  N N  N  II  N N  N  G       !!!           |
|           W WW W  AAAAAA  RRRRR   N  N N  II  N  N N  G  GGG   !            |
|           WW  WW  A    A  R   R   N   NN  II  N   NN  G    G                |
|           W    W  A    A  R    R  N    N  II  N    N   GGGG   !!!           |
|                                                                             |
|      Your generating k-point grid is not commensurate to the symmetry       |
|      of the lattice.  This can cause   slow convergence with respect        |
|      to k-points for HF type calculations                                   |
|      suggested SOLUTIONS:                                                   |
|       ) if not already the case, use automatic k-point generation           |
|       ) shift your grid to Gamma (G) (e.g. required for hex or fcc lattice) |
|                                                                             |
 ----------------------------------------------------------------------------- 

 
 Subroutine IBZKPT_HF returns following result:
 ==============================================
 
 Found      8 k-points in 1st BZ
 the following      8 k-points will be used (e.g. in the exchange kernel)
 Following reciprocal coordinates:   # in IRBZ
  0.000000  0.000000  0.000000    0.12500000   1 t-inv F
  0.500000  0.000000  0.000000    0.12500000   2 t-inv F
  0.000000  0.500000  0.000000    0.12500000   3 t-inv F
  0.500000  0.500000  0.000000    0.12500000   4 t-inv F
  0.000000  0.000000  0.500000    0.12500000   5 t-inv F
  0.500000  0.000000  0.500000    0.12500000   6 t-inv F
  0.000000  0.500000  0.500000    0.12500000   7 t-inv F
  0.500000  0.500000  0.500000    0.12500000   8 t-inv F


--------------------------------------------------------------------------------------------------------




 Dimension of arrays:
   k-points           NKPTS =      8   k-points in BZ     NKDIM =      8   number of bands    NBANDS=    776
   number of dos      NEDOS =   2000   number of ions     NIONS =     65
   non local maximal  LDIM  =      6   non local SUM 2l+1 LMDIM =     18
   total plane-waves  NPLWV = 884736
   max r-space proj   IRMAX =      1   max aug-charges    IRDMAX= 183854
   dimension x,y,z NGX =    96 NGY =   96 NGZ =   96
   dimension x,y,z NGXF=   192 NGYF=  192 NGZF=  192
   support grid    NGXF=   384 NGYF=  384 NGZF=  384
   ions per type =              33  32
   NGX,Y,Z   is equivalent  to a cutoff of  12.20, 12.20, 12.20 a.u.
   NGXF,Y,Z  is equivalent  to a cutoff of  24.39, 24.39, 24.39 a.u.

 SYSTEM =  unknown system                          
 POSCAR =  Cd33 Te32                               

 Startparameter for this run:
   NWRITE =      2    write-flag & timer
   PREC   = accura    normal or accurate (medium, high low for compatibility)
   ISTART =      0    job   : 0-new  1-cont  2-samecut
   ICHARG =      1    charge: 1-file 2-atom 10-const
   ISPIN  =      1    spin polarized calculation?
   LNONCOLLINEAR =      T non collinear calculations
   LSORBIT =      T    spin-orbit coupling
   INIWAV =      1    electr: 0-lowe 1-rand  2-diag
   LASPH  =      T    aspherical Exc in radial PAW
   METAGGA=      F    non-selfconsistent MetaGGA calc.

 Electronic Relaxation 1
   ENCUT  =  450.0 eV  33.07 Ry    5.75 a.u.  22.64 22.64 22.64*2*pi/ulx,y,z
   ENINI  =  450.0     initial cutoff
   ENAUG  =  456.1 eV  augmentation charge cutoff
   NELM   =      5;   NELMIN=  2; NELMDL= -5     # of ELM steps 
   EDIFF  = 0.1E-05   stopping-criterion for ELM
   LREAL  =      F    real-space projection
   NLSPLINE    = F    spline interpolate recip. space projectors
   LCOMPAT=      F    compatible to vasp.4.4
   GGA_COMPAT  = T    GGA compatible to vasp.4.4-vasp.4.6
   LMAXPAW     = -100 max onsite density
   LMAXMIX     =    2 max onsite mixed and CHGCAR
   VOSKOWN=      0    Vosko Wilk Nusair interpolation
   ROPT   =    0.00000   0.00000
 Ionic relaxation
   EDIFFG = -.1E-01   stopping-criterion for IOM
   NSW    =      0    number of steps for IOM
   NBLOCK =      1;   KBLOCK =      1    inner block; outer block 
   IBRION =     -1    ionic relax: 0-MD 1-quasi-New 2-CG
   NFREE  =      0    steps in history (QN), initial steepest desc. (CG)
   ISIF   =      2    stress and relaxation
   IWAVPR =     10    prediction:  0-non 1-charg 2-wave 3-comb
   ISYM   =      0    0-nonsym 1-usesym 2-fastsym
   LCORR  =      T    Harris-Foulkes like correction to forces

   POTIM  = 0.5000    time-step for ionic-motion
   TEIN   =    0.0    initial temperature
   TEBEG  =    0.0;   TEEND  =   0.0 temperature during run
   SMASS  =  -3.00    Nose mass-parameter (am)
   estimated Nose-frequenzy (Omega)   =  0.10E-29 period in steps =****** mass=  -0.391E-26a.u.
   SCALEE = 1.0000    scale energy and forces
   NPACO  =    256;   APACO  = 16.0  distance and # of slots for P.C.
   PSTRESS=    0.0 pullay stress

  Mass of Ions in am
   POMASS = 112.41127.60
  Ionic Valenz
   ZVAL   =  12.00  6.00
  Atomic Wigner-Seitz radii
   RWIGS  =  -1.00 -1.00
  virtual crystal weights 
   VCA    =   1.00  1.00
   NELECT =     588.0000    total number of electrons
   NUPDOWN=      -1.0000    fix difference up-down

 DOS related values:
   EMIN   =  10.00;   EMAX   =-10.00  energy-range for DOS
   EFERMI =   0.00
   ISMEAR =     0;   SIGMA  =   0.05  broadening in eV -4-tet -1-fermi 0-gaus

 Electronic relaxation 2 (details)
   IALGO  =     58    algorithm
   LDIAG  =      T    sub-space diagonalisation (order eigenvalues)
   LSUBROT=      F    optimize rotation matrix (better conditioning)
   TURBO    =      0    0=normal 1=particle mesh
   IRESTART =      0    0=no restart 2=restart with 2 vectors
   NREBOOT  =      0    no. of reboots
   NMIN     =      0    reboot dimension
   EREF     =   0.00    reference energy to select bands
   IMIX   =      4    mixing-type and parameters
     AMIX     =   0.40;   BMIX     =  1.00
     AMIX_MAG =   1.60;   BMIX_MAG =  1.00
     AMIN     =   0.10
     WC   =   100.;   INIMIX=   1;  MIXPRE=   1;  MAXMIX= -45

 Intra band minimization:
   WEIMIN = 0.0000     energy-eigenvalue tresh-hold
   EBREAK =  0.32E-09  absolut break condition
   DEPER  =   0.30     relativ break condition  

   TIME   =   0.40     timestep for ELM

  volume/ion in A,a.u.               =      34.48       232.69
  Fermi-wavevector in a.u.,A,eV,Ry     =   1.048017  1.980464 14.943809  1.098339
  Thomas-Fermi vector in A             =   2.182921

 Write flags
   LWAVE        =      T    write WAVECAR
   LDOWNSAMPLE  =      F    k-point downsampling of WAVECAR
   LCHARG       =      T    write CHGCAR
   LVTOT        =      F    write LOCPOT, total local potential
   LVHAR        =      T    write LOCPOT, Hartree potential only
   LELF         =      F    write electronic localiz. function (ELF)
   LORBIT       =     11    0 simple, 1 ext, 2 COOP (PROOUT), +10 PAW based schemes


 Dipole corrections
   LMONO  =      F    monopole corrections only (constant potential shift)
   LDIPOL =      F    correct potential (dipole corrections)
   IDIPOL =      0    1-x, 2-y, 3-z, 4-all directions 
   EPSILON=  1.0000000 bulk dielectric constant

 Exchange correlation treatment:
   GGA     =    --    GGA type
   LEXCH   =     8    internal setting for exchange type
   VOSKOWN=      0    Vosko Wilk Nusair interpolation
   EXXOEP  =     0    0=HF, 1=EXX-LHF (local Hartree Fock) 2=EXX OEP
   LHFCALC =     T    Hartree Fock is set to
   LSYMGRAD=     F    symmetrize gradient (conserves proper symmetry)
   PRECFOCK=fast      Normal, Fast or Accurate (Low or Medium for compatibility)
   LRHFCALC=     F    long range Hartree Fock
   LRSCOR  =     F    long range correlation only (use DFT for short range part)
   LTHOMAS =     F    Thomas Fermi screening in HF
   LMODELHF=     F    short range full HF, long range fraction AEXX
   ENCUT4O =  -1.0   cutoff for four orbital integrals eV
   LMAXFOCK=     4    L truncation for augmentation on plane wave grid
   LMAXFOCKAE=  -1    L truncation for all-electron charge restoration on plane wave grid
   NMAXFOCKAE=   1    number of basis functions for all-electron charge restoration
   LFOCKAEDFT=     F  apply the AE augmentation even for DFT
   NKREDX  =     1    reduce k-point grid by
   NKREDY  =     1    reduce k-point grid by
   NKREDZ  =     1    reduce k-point grid by
   SHIFTRED=     F    shift reduced grid of Gamma
   HFKIDENT=     F    idential grid for each k-point
   ODDONLY =     F    use only odd q-grid points
   EVENONLY=     F    use only even q-grid points
   HFALPHA =   -1.0000 decay constant for conv. correction
   MCALPHA =    0.0000 extent of test-charge in conv. correction in multipole expansion
   AEXX    =    0.2500 exact exchange contribution
   HFSCREEN=    0.2000 screening length (either q_TF or 0.3 A-1)
   HFSCREENC=   0.2000 screening length for correlation (either q_TF or 0.3 A-1)
   HFRCUT  =    0.0000 spherical cutoff for potential kernel
   ALDAX   =    0.7500 LDA exchange part
   AGGAX   =    0.7500 GGA exchange part
   ALDAC   =    1.0000 LDA correlation
   AGGAC   =    1.0000 GGA correlation
   ENCUTFOCK=  -1.0 apply spherical cutoff to Coloumb kernel
   NBANDSGWLOW=     1    first orbital included in HF term
   NBLOCK_FOCK=    64    blocking factor in FOCK_ACC
 Linear response parameters
   LEPSILON=     F    determine dielectric tensor
   LRPA    =     F    only Hartree local field effects (RPA)
   LNABLA  =     F    use nabla operator in PAW spheres
   LVEL    =     F    velocity operator in full k-point grid
   LINTERFAST=   F  fast interpolation
   KINTER  =     0    interpolate to denser k-point grid
   CSHIFT  =0.1000    complex shift for real part using Kramers Kronig
   OMEGAMAX=  -1.0    maximum frequency
   DEG_THRESHOLD= 0.2000000E-02 threshold for treating states as degnerate
   RTIME   =   -0.100 relaxation time in fs
  (WPLASMAI=    0.000 imaginary part of plasma frequency in eV, 0.658/RTIME)
   DFIELD  = 0.0000000 0.0000000 0.0000000 field for delta impulse in time

 Orbital magnetization related:
   ORBITALMAG=     F  switch on orbital magnetization
   LCHIMAG   =     F  perturbation theory with respect to B field
   DQ        =  0.001000  dq finite difference perturbation B field
   LLRAUG    =     F  two centre corrections for induced B field



--------------------------------------------------------------------------------------------------------


 Static calculation
 charge density and potential will be updated during run
 non collinear spin polarized calculation
 Conjugate gradient for all bands (Freysoldt, et al. PRB 79, 241103 (2009))
 preconditioned conjugated gradient                                        
 perform sub-space diagonalisation
    before iterative eigenvector-optimisation
 modified Broyden-mixing scheme, WC =      100.0
 initial mixing is a Kerker type mixing with AMIX =  0.4000 and BMIX =      1.0000
 Hartree-type preconditioning will be used
 using additional bands          482
 reciprocal scheme for non local part
 use partial core corrections
 no Harris-corrections to forces 
 use gradient corrections 
 use of overlap-Matrix (Vanderbilt PP)
 Gauss-broadening in eV      SIGMA  =   0.05


--------------------------------------------------------------------------------------------------------


  energy-cutoff  :      450.00
  volume of cell :     2241.29
      direct lattice vectors                 reciprocal lattice vectors
    13.086768000  0.000000000  0.000000000     0.076413061  0.000000000  0.000000000
     0.000000000 13.086768000  0.000000000     0.000000000  0.076413061  0.000000000
     0.000000000  0.000000000 13.086768000     0.000000000  0.000000000  0.076413061

  length of vectors
    13.086768000 13.086768000 13.086768000     0.076413061  0.076413061  0.076413061



 k-points in units of 2pi/SCALE and weight: Automatically generated mesh            
   0.00000000  0.00000000  0.00000000       0.125
   0.03820653  0.00000000  0.00000000       0.125
   0.00000000  0.03820653  0.00000000       0.125
   0.03820653  0.03820653  0.00000000       0.125
   0.00000000  0.00000000  0.03820653       0.125
   0.03820653  0.00000000  0.03820653       0.125
   0.00000000  0.03820653  0.03820653       0.125
   0.03820653  0.03820653  0.03820653       0.125

 k-points in reciprocal lattice and weights: Automatically generated mesh            
   0.00000000  0.00000000  0.00000000       0.125
   0.50000000  0.00000000  0.00000000       0.125
   0.00000000  0.50000000  0.00000000       0.125
   0.50000000  0.50000000  0.00000000       0.125
   0.00000000  0.00000000  0.50000000       0.125
   0.50000000  0.00000000  0.50000000       0.125
   0.00000000  0.50000000  0.50000000       0.125
   0.50000000  0.50000000  0.50000000       0.125

 position of ions in fractional coordinates (direct lattice) 
   0.00448500  0.99551500  0.00448500
   0.00124700  0.99875300  0.49695900
   0.00124700  0.50304100  0.00124700
   0.99962500  0.50121800  0.49878200
   0.49695900  0.99875300  0.00124700
   0.49878100  0.00037500  0.49878100
   0.49878100  0.50121900  0.99962500
   0.50052800  0.49947200  0.50052800
   0.00124700  0.25124700  0.25304000
   0.00448600  0.25448500  0.74551500
   0.99962500  0.74878200  0.25121800
   0.00124700  0.74695900  0.74875300
   0.49878200  0.24962500  0.25121900
   0.49696000  0.25124700  0.74875300
   0.50052800  0.75052800  0.24947200
   0.49878100  0.74878100  0.75037500
   0.25121900  0.00037500  0.25121900
   0.25304000  0.99875300  0.74875300
   0.24947200  0.49947200  0.24947200
   0.25121900  0.50121900  0.75037500
   0.74875300  0.99875300  0.25304000
   0.74551400  0.99551500  0.74551500
   0.75037500  0.50121900  0.25121900
   0.74875300  0.50304000  0.74875300
   0.25304000  0.25124700  0.00124700
   0.25121900  0.24962500  0.49878100
   0.25121900  0.74878100  0.99962500
   0.24947200  0.75052800  0.50052800
   0.74551400  0.25448500  0.00448500
   0.74875300  0.25124700  0.49696000
   0.74875300  0.74695900  0.00124700
   0.75037500  0.74878200  0.49878200
   0.87500000  0.12500000  0.87500000
   0.12665600  0.12500000  0.37500000
   0.13277900  0.12500000  0.87500000
   0.12589200  0.62500000  0.37500000
   0.12665600  0.62500000  0.87500000
   0.62334400  0.12500000  0.37500000
   0.61722100  0.12500000  0.87500000
   0.62410800  0.62500000  0.37500000
   0.62334400  0.62500000  0.87500000
   0.12484800  0.37484800  0.12484800
   0.12748800  0.37748800  0.62251200
   0.12748800  0.87251200  0.12748800
   0.12484800  0.87515200  0.62515200
   0.62251200  0.37748800  0.12748800
   0.62515200  0.37484800  0.62515200
   0.62515200  0.87515200  0.12484800
   0.62251200  0.87251200  0.62251200
   0.37500000  0.12500000  0.12665600
   0.37500000  0.12500000  0.62334400
   0.37500000  0.62500000  0.12589200
   0.37500000  0.62500000  0.62410800
   0.87500000  0.12500000  0.13277900
   0.87500000  0.12500000  0.61722100
   0.87500000  0.62500000  0.12665600
   0.87500000  0.62500000  0.62334400
   0.37500000  0.37589200  0.37500000
   0.37500000  0.37665600  0.87500000
   0.37500000  0.87410800  0.37500000
   0.37500000  0.87334400  0.87500000
   0.87500000  0.37665600  0.37500000
   0.87500000  0.38277900  0.87500000
   0.87500000  0.87334400  0.37500000
   0.87500000  0.86722100  0.87500000

 position of ions in cartesian coordinates  (Angst):
   0.05869415 13.02807385  0.05869415
   0.01631920 13.07044880  6.50358714
   0.01631920  6.58318086  0.01631920
  13.08186046  6.55932368  6.52744432
   6.50358714 13.07044880  0.01631920
   6.52743123  0.00490754  6.52743123
   6.52743123  6.55933677 13.08186046
   6.55029381  6.53647419  6.55029381
   0.01631920  3.28801120  3.31147577
   0.05870724  3.33038615  9.75638185
  13.08186046  9.79913632  3.28763168
   0.01631920  9.77527914  9.79875680
   6.52744432  3.26678446  3.28764477
   6.50360023  3.28801120  9.79875680
   6.55029381  9.82198581  3.26478219
   6.52743123  9.79912323  9.81998354
   3.28764477  0.00490754  3.28764477
   3.31147577 13.07044880  9.79875680
   3.26478219  6.53647419  3.26478219
   3.28764477  6.55933677  9.81998354
   9.79875680 13.07044880  3.31147577
   9.75636876 13.02807385  9.75638185
   9.81998354  6.55933677  3.28764477
   9.79875680  6.58316777  9.79875680
   3.31147577  3.28801120  0.01631920
   3.28764477  3.26678446  6.52743123
   3.28764477  9.79912323 13.08186046
   3.26478219  9.82198581  6.55029381
   9.75636876  3.33038615  0.05869415
   9.79875680  3.28801120  6.50360023
   9.79875680  9.77527914  0.01631920
   9.81998354  9.79913632  6.52744432
  11.45092200  1.63584600 11.45092200
   1.65751769  1.63584600  4.90753800
   1.73764797  1.63584600 11.45092200
   1.64751940  8.17923000  4.90753800
   1.65751769  8.17923000 11.45092200
   8.15755831  1.63584600  4.90753800
   8.07742803  1.63584600 11.45092200
   8.16755660  8.17923000  4.90753800
   8.15755831  8.17923000 11.45092200
   1.63385681  4.90554881  1.63385681
   1.66840588  4.94009788  8.14667012
   1.66840588 11.41836212  1.66840588
   1.63385681 11.45291119  8.18121919
   8.14667012  4.94009788  1.66840588
   8.18121919  4.90554881  8.18121919
   8.18121919 11.45291119  1.63385681
   8.14667012 11.41836212  8.14667012
   4.90753800  1.63584600  1.65751769
   4.90753800  1.63584600  8.15755831
   4.90753800  8.17923000  1.64751940
   4.90753800  8.17923000  8.16755660
  11.45092200  1.63584600  1.73764797
  11.45092200  1.63584600  8.07742803
  11.45092200  8.17923000  1.65751769
  11.45092200  8.17923000  8.15755831
   4.90753800  4.91921140  4.90753800
   4.90753800  4.92920969 11.45092200
   4.90753800 11.43924860  4.90753800
   4.90753800 11.42925031 11.45092200
  11.45092200  4.92920969  4.90753800
  11.45092200  5.00933997 11.45092200
  11.45092200 11.42925031  4.90753800
  11.45092200 11.34912003 11.45092200

 Euler angles ALPHA=     0.0000000  BETA=     0.0000000

 transformation matrix from SAXIS to cartesian coordinates
 ---------------------------------------------------------
     1.0000000 m_x    -0.0000000 m_y     0.0000000 m_z
     0.0000000 m_x     1.0000000 m_y     0.0000000 m_z
    -0.0000000 m_x     0.0000000 m_y     1.0000000 m_z

 transformation matrix from cartesian coordinates to SAXIS
 ---------------------------------------------------------
     1.0000000 m_x     0.0000000 m_y    -0.0000000 m_z
    -0.0000000 m_x     1.0000000 m_y     0.0000000 m_z
     0.0000000 m_x     0.0000000 m_y     1.0000000 m_z




--------------------------------------------------------------------------------------------------------


 k-point  1 :   0.0000 0.0000 0.0000  plane waves:   97002
 k-point  2 :   0.5000 0.0000 0.0000  plane waves:   97356
 k-point  3 :   0.0000 0.5000 0.0000  plane waves:   97356
 k-point  4 :   0.5000 0.5000 0.0000  plane waves:   96960
 k-point  5 :   0.0000 0.0000 0.5000  plane waves:   97356
 k-point  6 :   0.5000 0.0000 0.5000  plane waves:   96960
 k-point  7 :   0.0000 0.5000 0.5000  plane waves:   96960
 k-point  8 :   0.5000 0.5000 0.5000  plane waves:   96832

 maximum and minimum number of plane-waves per node :      6146     5998

 maximum number of plane-waves:     97356
 maximum index in each direction: 
   IXMAX=   22   IYMAX=   22   IZMAX=   22
   IXMIN=  -23   IYMIN=  -23   IZMIN=  -23


 parallel 3D FFT for wavefunctions:
    minimum data exchange during FFTs selected (reduces bandwidth)
 parallel 3D FFT for charge:
    minimum data exchange during FFTs selected (reduces bandwidth)


 FFT grid for exact exchange (Hartree Fock) 
  NGX = 48; NGY = 48; NGZ = 48


 Radii for the augmentation spheres in the non-local exchange
 for species   1 augmentation radius   1.444 (default was   1.070)
       energy cutoff for augmentation   1800.0
 for species   2 augmentation radius   1.606 (default was   1.190)
       energy cutoff for augmentation   1800.0

 real space projection operators:
  total allocation   :       9375.20 KBytes
  max/ min on nodes  :        615.43        566.80

 Maximum index for augmentation-charges in exchange           97
  SETUP_FOCK is finished

 total amount of memory used by VASP MPI-rank0   320722. kBytes
=======================================================================

   base      :      30000. kBytes
   nonl-proj :      10272. kBytes
   fftplans  :      18744. kBytes
   grid      :      24772. kBytes
   one-center:        311. kBytes
   HF        :        129. kBytes
   nonlr-proj:       1684. kBytes
   wavefun   :     234810. kBytes

     INWAV:  cpu time    0.0000: real time    0.0000
 Broyden mixing: mesh for mixing (old mesh)
   NGX = 45   NGY = 45   NGZ = 45
  (NGX  =192   NGY  =192   NGZ  =192)
  gives a total of  91125 points

 initial charge density was supplied:
 number of electron     588.0000005 magnetization      -0.0313699     -0.0313813     -0.0312866
 keeping initial charge density in first step


--------------------------------------------------------------------------------------------------------


 Maximum index for augmentation-charges         3093 (set IRDMAX)


--------------------------------------------------------------------------------------------------------


 First call to EWALD:  gamma=   0.135
 Maximum number of real-space cells 3x 3x 3
 Maximum number of reciprocal cells 3x 3x 3

    FEWALD:  cpu time    0.0033: real time    0.0033


--------------------------------------- Iteration      1(   1)  ---------------------------------------


    POTLOK:  cpu time    1.0358: real time    1.0364
    SETDIJ:  cpu time    2.5193: real time    2.5195
    TRIAL :  cpu time   47.1581: real time   47.1624
    CORREC:  cpu time    0.0014: real time    0.0014
    --------------------------------------------
      LOOP:  cpu time   50.7376: real time   51.0163

 eigenvalue-minimisations  : 17344
 total energy-change (2. order) :-0.7615429E+04  (-0.3681755E+05)
 number of electron     588.0000005 magnetization      -0.0313699     -0.0313813     -0.0312866
 augmentation part      588.0000005 magnetization      -0.0313699     -0.0313813     -0.0312866

 Free energy of the ion-electron system (eV)
  ---------------------------------------------------
  alpha Z        PSCENC =      1642.45118531
  Ewald energy   TEWEN  =    -33940.17512420
  -Hartree energ DENC   =    -14113.65921029
  -exchange      EXHF   =         0.00000000
  -V(xc)+E(xc)   XCENC  =      -691.70610129
  PAW double counting   =    155599.04858321  -153504.02416039
  entropy T*S    EENTRO =        -0.03820418
  eigenvalues    EBANDS =    -12356.75181843
  atomic energy  EATOM  =     49749.42546357
  ---------------------------------------------------
  free energy    TOTEN  =     -7615.42938668 eV

  energy without entropy =    -7615.39118250  energy(sigma->0) =    -7615.41028459
  exchange ACFDT corr.  =         0.00000000  see jH, gK, PRB 81, 115126


--------------------------------------------------------------------------------------------------------




--------------------------------------- Iteration      1(   2)  ---------------------------------------


    TRIAL :  cpu time   42.7212: real time   42.7254
    CORREC:  cpu time    0.0014: real time    0.0014
    --------------------------------------------
      LOOP:  cpu time   42.7346: real time   42.7615

 eigenvalue-minimisations  : 15432
 total energy-change (2. order) :-0.7121534E+04  (-0.6516236E+04)
 number of electron     588.0000005 magnetization      -0.0313699     -0.0313813     -0.0312866
 augmentation part      588.0000005 magnetization      -0.0313699     -0.0313813     -0.0312866

 Free energy of the ion-electron system (eV)
  ---------------------------------------------------
  alpha Z        PSCENC =      1642.45118531
  Ewald energy   TEWEN  =    -33940.17512420
  -Hartree energ DENC   =    -14113.65921029
  -exchange      EXHF   =         0.00000000
  -V(xc)+E(xc)   XCENC  =      -691.70610129
  PAW double counting   =    155599.04858321  -153504.02416039
  entropy T*S    EENTRO =        -0.02248938
  eigenvalues    EBANDS =    -19478.30188887
  atomic energy  EATOM  =     49749.42546357
  ---------------------------------------------------
  free energy    TOTEN  =    -14736.96374232 eV

  energy without entropy =   -14736.94125295  energy(sigma->0) =   -14736.95249763
  exchange ACFDT corr.  =         0.00000000  see jH, gK, PRB 81, 115126


--------------------------------------------------------------------------------------------------------




--------------------------------------- Iteration      1(   3)  ---------------------------------------


    TRIAL :  cpu time   57.3695: real time   57.3744
    CORREC:  cpu time    0.0014: real time    0.0014
    --------------------------------------------
      LOOP:  cpu time   57.3806: real time   57.4088

 eigenvalue-minimisations  : 22288
 total energy-change (2. order) :-0.1493497E+04  (-0.1465799E+04)
 number of electron     588.0000005 magnetization      -0.0313699     -0.0313813     -0.0312866
 augmentation part      588.0000005 magnetization      -0.0313699     -0.0313813     -0.0312866

 Free energy of the ion-electron system (eV)
  ---------------------------------------------------
  alpha Z        PSCENC =      1642.45118531
  Ewald energy   TEWEN  =    -33940.17512420
  -Hartree energ DENC   =    -14113.65921029
  -exchange      EXHF   =         0.00000000
  -V(xc)+E(xc)   XCENC  =      -691.70610129
  PAW double counting   =    155599.04858321  -153504.02416039
  entropy T*S    EENTRO =        -0.02197720
  eigenvalues    EBANDS =    -20971.79894087
  atomic energy  EATOM  =     49749.42546357
  ---------------------------------------------------
  free energy    TOTEN  =    -16230.46028214 eV

  energy without entropy =   -16230.43830494  energy(sigma->0) =   -16230.44929354
  exchange ACFDT corr.  =         0.00000000  see jH, gK, PRB 81, 115126


--------------------------------------------------------------------------------------------------------




--------------------------------------- Iteration      1(   4)  ---------------------------------------


    TRIAL :  cpu time   54.4947: real time   54.4987
    CORREC:  cpu time    0.0014: real time    0.0014
    --------------------------------------------
      LOOP:  cpu time   54.5068: real time   54.5328

 eigenvalue-minimisations  : 20856
 total energy-change (2. order) :-0.2126045E+03  (-0.2047490E+03)
 number of electron     588.0000005 magnetization      -0.0313699     -0.0313813     -0.0312866
 augmentation part      588.0000005 magnetization      -0.0313699     -0.0313813     -0.0312866

 Free energy of the ion-electron system (eV)
  ---------------------------------------------------
  alpha Z        PSCENC =      1642.45118531
  Ewald energy   TEWEN  =    -33940.17512420
  -Hartree energ DENC   =    -14113.65921029
  -exchange      EXHF   =         0.00000000
  -V(xc)+E(xc)   XCENC  =      -691.70610129
  PAW double counting   =    155599.04858321  -153504.02416039
  entropy T*S    EENTRO =        -0.06295283
  eigenvalues    EBANDS =    -21184.36245262
  atomic energy  EATOM  =     49749.42546357
  ---------------------------------------------------
  free energy    TOTEN  =    -16443.06476952 eV

  energy without entropy =   -16443.00181669  energy(sigma->0) =   -16443.03329310
  exchange ACFDT corr.  =         0.00000000  see jH, gK, PRB 81, 115126


--------------------------------------------------------------------------------------------------------




--------------------------------------- Iteration      1(   5)  ---------------------------------------


    TRIAL :  cpu time   52.9156: real time   52.9199
    CORREC:  cpu time    0.0015: real time    0.0015
    EDDIAG:  cpu time 2766.4587: real time 2766.8215
    CHARGE:  cpu time    2.1891: real time    2.1892
    --------------------------------------------
      LOOP:  cpu time 2821.5750: real time 2821.9672

 eigenvalue-minimisations  : 20200
 total energy-change (2. order) :-0.1506258E+02  (-0.1475973E+02)
 number of electron     588.0000003 magnetization       0.0362620     -0.0540138     -0.0610500
 augmentation part       91.4270479 magnetization       0.0000989      0.0026125      0.0038020

 Free energy of the ion-electron system (eV)
  ---------------------------------------------------
  alpha Z        PSCENC =      1642.45118531
  Ewald energy   TEWEN  =    -33940.17512420
  -Hartree energ DENC   =    -14113.65921029
  -exchange      EXHF   =      1763.11990810
  -V(xc)+E(xc)   XCENC  =      -691.70610129
  PAW double counting   =    155599.04858321  -153504.02416039
  entropy T*S    EENTRO =        -0.07306727
  eigenvalues    EBANDS =    -21199.41491368
  atomic energy  EATOM  =     49749.42546357
  ---------------------------------------------------
  free energy    TOTEN  =    -16458.12734502 eV

  energy without entropy =   -16458.05427775  energy(sigma->0) =   -16458.09081139
  exchange ACFDT corr.  =         0.00000000  see jH, gK, PRB 81, 115126


--------------------------------------------------------------------------------------------------------


  average scaling for gradient   1.0000


 average (electrostatic) potential at core
  the test charge radii are     1.0698  1.1897
  (the norm of the test charge is              1.0000)
       1 -91.9339       2 -46.9106       3 -46.9906       4 -31.3289       5 -46.9154
       6 -31.2678       7 -31.3371       8 -17.6688       9 -46.9902      10 -91.9238
      11 -31.3343      12 -46.9107      13 -31.3346      14 -46.9097      15 -17.6731
      16 -31.2696      17 -31.3165      18 -46.8846      19 -17.6687      20 -31.3117
      21 -46.8837      22 -91.6272      23 -31.3108      24 -46.8794      25 -46.9944
      26 -31.3327      27 -31.3390      28 -17.6675      29 -91.9250      30 -46.9069
      31 -46.9128      32 -31.2656      33-254.3132      34 -79.3115      35-119.1830
      36 -60.5362      37 -79.3120      38 -79.2581      39-119.0770      40 -60.5136
      41 -79.2596      42 -83.5840      43 -83.2140      44 -83.2221      45 -83.4979
      46 -83.2179      47 -83.4954      48 -83.5021      49 -83.0998      50 -79.3150
      51 -79.2589      52 -60.5443      53 -60.5137      54-119.1818      55-119.0760
      56 -79.3111      57 -79.2560      58 -60.5392      59 -79.3128      60 -60.5166
      61 -79.2639      62 -79.3067      63-119.1770      64 -79.2591      65-119.0806



 E-fermi :  -6.8906     XC(G=0):  -7.4309     alpha+bet : -7.2837


 k-point     1 :       0.0000    0.0000    0.0000
  band No.  band energies     occupation 
      1    -222.1567      1.00000
      2    -222.1565      1.00000
      3    -222.1547      1.00000
      4    -222.1546      1.00000
      5    -221.0578      1.00000
      6    -221.0577      1.00000
      7    -221.0511      1.00000
      8    -221.0509      1.00000
      9    -221.0503      1.00000
     10    -221.0502      1.00000
     11    -206.6117      1.00000
     12    -206.6100      1.00000
     13    -170.9672      1.00000
     14    -170.9669      1.00000
     15    -170.8142      1.00000
     16    -170.8138      1.00000
     17    -170.8134      1.00000
     18    -170.8129      1.00000
     19    -147.3826      1.00000
     20    -147.3819      1.00000
     21    -136.8567      1.00000
     22    -136.8565      1.00000
     23    -135.2455      1.00000
     24    -135.2451      1.00000
     25    -135.2402      1.00000
     26    -135.2396      1.00000
     27    -109.4751      1.00000
     28    -109.4749      1.00000
     29    -109.4686      1.00000
     30    -109.4685      1.00000
     31    -109.3451      1.00000
     32    -109.3449      1.00000
     33    -109.2146      1.00000
     34    -109.2144      1.00000
     35    -109.2132      1.00000
     36    -109.2128      1.00000
     37    -101.8577      1.00000
     38    -101.8570      1.00000
     39    -101.6015      1.00000
     40    -101.6010      1.00000
     41    -101.5980      1.00000
     42    -101.5976      1.00000
     43    -101.5972      1.00000
     44    -101.5967      1.00000
     45    -101.5646      1.00000
     46    -101.5641      1.00000
     47    -101.5613      1.00000
     48    -101.5608      1.00000
     49    -101.5605      1.00000
     50    -101.5602      1.00000
     51     -87.1079      1.00000
     52     -87.1068      1.00000
     53     -77.8963      1.00000
     54     -77.8954      1.00000
     55     -77.8032      1.00000
     56     -77.8023      1.00000
     57     -77.7499      1.00000
     58     -77.7493      1.00000
     59     -72.2810      1.00000
     60     -72.2804      1.00000
     61     -70.9710      1.00000
     62     -70.9707      1.00000
     63     -70.9406      1.00000
     64     -70.9403      1.00000
     65     -70.9304      1.00000
     66     -70.9300      1.00000
     67     -70.6283      1.00000
     68     -70.6281      1.00000
     69     -70.4197      1.00000
     70     -70.4195      1.00000
     71     -70.4135      1.00000
     72     -70.4128      1.00000
     73     -70.3782      1.00000
     74     -70.3778      1.00000
     75     -70.3737      1.00000
     76     -70.3733      1.00000
     77     -70.3663      1.00000
     78     -70.3659      1.00000
     79     -70.3570      1.00000
     80     -70.3566      1.00000
     81     -70.3367      1.00000
     82     -70.3363      1.00000
     83     -69.3769      1.00000
     84     -69.3768      1.00000
     85     -69.3717      1.00000
     86     -69.3716      1.00000
     87     -67.7208      1.00000
     88     -67.7202      1.00000
     89     -67.2016      1.00000
     90     -67.2013      1.00000
     91     -67.1433      1.00000
     92     -67.1431      1.00000
     93     -67.1258      1.00000
     94     -67.1255      1.00000
     95     -65.5237      1.00000
     96     -65.5227      1.00000
     97     -65.5215      1.00000
     98     -65.5207      1.00000
     99     -65.2120      1.00000
    100     -65.2115      1.00000
    101     -64.5318      1.00000
    102     -64.5316      1.00000
    103     -64.4560      1.00000
    104     -64.4556      1.00000
    105     -64.1723      1.00000
    106     -64.1720      1.00000
    107     -64.1501      1.00000
    108     -64.1496      1.00000
    109     -64.0080      1.00000
    110     -64.0078      1.00000
    111     -63.9773      1.00000
    112     -63.9771      1.00000
    113     -63.8575      1.00000
    114     -63.8570      1.00000
    115     -63.4679      1.00000
    116     -63.4678      1.00000
    117     -63.4606      1.00000
    118     -63.4600      1.00000
    119     -63.3667      1.00000
    120     -63.3665      1.00000
    121     -63.2928      1.00000
    122     -63.2919      1.00000
    123     -63.0341      1.00000
    124     -63.0338      1.00000
    125     -62.9718      1.00000
    126     -62.9717      1.00000
    127     -62.5522      1.00000
    128     -62.5518      1.00000
    129     -62.5440      1.00000
    130     -62.5435      1.00000
    131     -62.3916      1.00000
    132     -62.3913      1.00000
    133     -61.8719      1.00000
    134     -61.8714      1.00000
    135     -61.5714      1.00000
    136     -61.5710      1.00000
    137     -61.5352      1.00000
    138     -61.5348      1.00000
    139     -61.5004      1.00000
    140     -61.4999      1.00000
    141     -58.4614      1.00000
    142     -58.4607      1.00000
    143     -52.1021      1.00000
    144     -52.1017      1.00000
    145     -52.1012      1.00000
    146     -52.1006      1.00000
    147     -52.0845      1.00000
    148     -52.0837      1.00000
    149     -50.0289      1.00000
    150     -50.0282      1.00000
    151     -50.0273      1.00000
    152     -50.0268      1.00000
    153     -49.9540      1.00000
    154     -49.9534      1.00000
    155     -49.2858      1.00000
    156     -49.2852      1.00000
    157     -49.2687      1.00000
    158     -49.2685      1.00000
    159     -49.1734      1.00000
    160     -49.1731      1.00000
    161     -48.6466      1.00000
    162     -48.6458      1.00000
    163     -48.6095      1.00000
    164     -48.6086      1.00000
    165     -48.6077      1.00000
    166     -48.6070      1.00000
    167     -47.8686      1.00000
    168     -47.8684      1.00000
    169     -47.7895      1.00000
    170     -47.7890      1.00000
    171     -47.7775      1.00000
    172     -47.7771      1.00000
    173     -47.5698      1.00000
    174     -47.5695      1.00000
    175     -47.5690      1.00000
    176     -47.5687      1.00000
    177     -47.0903      1.00000
    178     -47.0901      1.00000
    179     -47.0247      1.00000
    180     -47.0244      1.00000
    181     -47.0131      1.00000
    182     -47.0128      1.00000
    183     -45.9690      1.00000
    184     -45.9685      1.00000
    185     -45.8400      1.00000
    186     -45.8394      1.00000
    187     -45.8027      1.00000
    188     -45.8021      1.00000
    189     -44.5519      1.00000
    190     -44.5513      1.00000
    191     -44.5479      1.00000
    192     -44.5476      1.00000
    193     -44.4930      1.00000
    194     -44.4924      1.00000
    195     -44.4730      1.00000
    196     -44.4722      1.00000
    197     -44.4719      1.00000
    198     -44.4709      1.00000
    199     -41.9496      1.00000
    200     -41.9490      1.00000
    201     -41.9348      1.00000
    202     -41.9346      1.00000
    203     -41.9303      1.00000
    204     -41.9297      1.00000
    205     -40.9050      1.00000
    206     -40.9041      1.00000
    207     -39.9435      1.00000
    208     -39.9431      1.00000
    209     -39.8935      1.00000
    210     -39.8934      1.00000
    211     -39.8862      1.00000
    212     -39.8857      1.00000
    213     -38.0795      1.00000
    214     -38.0780      1.00000
    215     -35.4831      1.00000
    216     -35.4826      1.00000
    217     -35.4619      1.00000
    218     -35.4613      1.00000
    219     -35.3717      1.00000
    220     -35.3713      1.00000
    221     -35.3672      1.00000
    222     -35.3670      1.00000
    223     -35.3207      1.00000
    224     -35.3200      1.00000
    225     -35.1090      1.00000
    226     -35.1085      1.00000
    227     -34.9611      1.00000
    228     -34.9607      1.00000
    229     -34.9393      1.00000
    230     -34.9388      1.00000
    231     -34.3620      1.00000
    232     -34.3617      1.00000
    233     -34.2689      1.00000
    234     -34.2685      1.00000
    235     -34.2435      1.00000
    236     -34.2430      1.00000
    237     -33.6196      1.00000
    238     -33.6189      1.00000
    239     -33.1279      1.00000
    240     -33.1278      1.00000
    241     -33.0152      1.00000
    242     -33.0149      1.00000
    243     -33.0109      1.00000
    244     -33.0106      1.00000
    245     -32.3505      1.00000
    246     -32.3499      1.00000
    247     -32.3132      1.00000
    248     -32.3125      1.00000
    249     -32.2863      1.00000
    250     -32.2856      1.00000
    251     -32.1325      1.00000
    252     -32.1312      1.00000
    253     -31.9121      1.00000
    254     -31.9116      1.00000
    255     -31.9100      1.00000
    256     -31.9096      1.00000
    257     -31.5400      1.00000
    258     -31.5394      1.00000
    259     -31.4317      1.00000
    260     -31.4312      1.00000
    261     -31.4264      1.00000
    262     -31.4255      1.00000
    263     -31.0257      1.00000
    264     -31.0253      1.00000
    265     -30.8511      1.00000
    266     -30.8505      1.00000
    267     -30.8373      1.00000
    268     -30.8365      1.00000
    269     -29.8547      1.00000
    270     -29.8540      1.00000
    271     -29.6121      1.00000
    272     -29.6115      1.00000
    273     -29.4651      1.00000
    274     -29.4638      1.00000
    275     -29.4520      1.00000
    276     -29.4515      1.00000
    277     -29.3216      1.00000
    278     -29.3212      1.00000
    279     -29.3199      1.00000
    280     -29.3193      1.00000
    281     -28.1695      1.00000
    282     -28.1687      1.00000
    283     -28.1457      1.00000
    284     -28.1446      1.00000
    285     -28.0788      1.00000
    286     -28.0773      1.00000
    287     -27.2854      1.00000
    288     -27.2847      1.00000
    289     -27.2556      1.00000
    290     -27.2552      1.00000
    291     -27.0862      1.00000
    292     -27.0856      1.00000
    293     -26.6735      1.00000
    294     -26.6723      1.00000
    295     -26.6718      1.00000
    296     -26.6699      1.00000
    297     -25.7894      1.00000
    298     -25.7881      1.00000
    299     -25.7876      1.00000
    300     -25.7868      1.00000
    301     -25.6133      1.00000
    302     -25.6120      1.00000
    303     -24.6366      1.00000
    304     -24.6358      1.00000
    305     -24.6006      1.00000
    306     -24.5974      1.00000
    307     -24.4695      1.00000
    308     -24.4692      1.00000
    309     -24.4457      1.00000
    310     -24.4446      1.00000
    311     -24.0920      1.00000
    312     -24.0911      1.00000
    313     -24.0529      1.00000
    314     -24.0524      1.00000
    315     -24.0406      1.00000
    316     -24.0393      1.00000
    317     -23.5985      1.00000
    318     -23.5975      1.00000
    319     -23.5907      1.00000
    320     -23.5899      1.00000
    321     -23.5093      1.00000
    322     -23.5089      1.00000
    323     -23.1277      1.00000
    324     -23.1255      1.00000
    325     -22.4639      1.00000
    326     -22.4629      1.00000
    327     -22.4397      1.00000
    328     -22.4390      1.00000
    329     -22.4386      1.00000
    330     -22.4383      1.00000
    331     -22.2011      1.00000
    332     -22.2000      1.00000
    333     -21.7879      1.00000
    334     -21.7877      1.00000
    335     -21.7851      1.00000
    336     -21.7850      1.00000
    337     -21.4480      1.00000
    338     -21.4468      1.00000
    339     -21.4411      1.00000
    340     -21.4394      1.00000
    341     -21.3362      1.00000
    342     -21.3354      1.00000
    343     -20.8089      1.00000
    344     -20.8087      1.00000
    345     -20.7716      1.00000
    346     -20.7713      1.00000
    347     -20.7471      1.00000
    348     -20.7469      1.00000
    349     -20.7175      1.00000
    350     -20.7173      1.00000
    351     -20.6714      1.00000
    352     -20.6711      1.00000
    353     -20.6689      1.00000
    354     -20.6686      1.00000
    355     -20.6603      1.00000
    356     -20.6599      1.00000
    357     -20.6422      1.00000
    358     -20.6419      1.00000
    359     -20.5599      1.00000
    360     -20.5592      1.00000
    361     -20.5352      1.00000
    362     -20.5346      1.00000
    363     -20.5215      1.00000
    364     -20.5209      1.00000
    365     -20.4238      1.00000
    366     -20.4232      1.00000
    367     -20.3441      1.00000
    368     -20.3432      1.00000
    369     -20.3357      1.00000
    370     -20.3350      1.00000
    371     -20.2442      1.00000
    372     -20.2440      1.00000
    373     -20.2280      1.00000
    374     -20.2277      1.00000
    375     -20.2187      1.00000
    376     -20.2181      1.00000
    377     -20.1518      1.00000
    378     -20.1514      1.00000
    379     -20.1255      1.00000
    380     -20.1253      1.00000
    381     -20.1177      1.00000
    382     -20.1174      1.00000
    383     -20.1109      1.00000
    384     -20.1106      1.00000
    385     -20.0816      1.00000
    386     -20.0811      1.00000
    387     -20.0640      1.00000
    388     -20.0638      1.00000
    389     -20.0378      1.00000
    390     -20.0375      1.00000
    391     -20.0206      1.00000
    392     -20.0202      1.00000
    393     -20.0048      1.00000
    394     -20.0045      1.00000
    395     -19.9527      1.00000
    396     -19.9523      1.00000
    397     -19.9491      1.00000
    398     -19.9489      1.00000
    399     -19.9198      1.00000
    400     -19.9193      1.00000
    401     -19.9049      1.00000
    402     -19.9045      1.00000
    403     -19.9019      1.00000
    404     -19.9014      1.00000
    405     -19.8831      1.00000
    406     -19.8826      1.00000
    407     -19.8293      1.00000
    408     -19.8291      1.00000
    409     -19.8187      1.00000
    410     -19.8187      1.00000
    411     -19.7767      1.00000
    412     -19.7763      1.00000
    413     -19.6936      1.00000
    414     -19.6933      1.00000
    415     -19.6588      1.00000
    416     -19.6578      1.00000
    417     -19.6168      1.00000
    418     -19.6160      1.00000
    419     -19.6059      1.00000
    420     -19.6051      1.00000
    421     -19.5797      1.00000
    422     -19.5793      1.00000
    423     -19.5522      1.00000
    424     -19.5517      1.00000
    425     -19.5297      1.00000
    426     -19.5295      1.00000
    427     -19.5234      1.00000
    428     -19.5227      1.00000
    429     -19.5180      1.00000
    430     -19.5174      1.00000
    431     -19.4910      1.00000
    432     -19.4906      1.00000
    433     -19.4680      1.00000
    434     -19.4677      1.00000
    435     -19.4653      1.00000
    436     -19.4649      1.00000
    437     -19.4501      1.00000
    438     -19.4498      1.00000
    439     -19.4268      1.00000
    440     -19.4265      1.00000
    441     -19.4162      1.00000
    442     -19.4160      1.00000
    443     -19.3775      1.00000
    444     -19.3770      1.00000
    445     -19.3688      1.00000
    446     -19.3685      1.00000
    447     -19.3673      1.00000
    448     -19.3670      1.00000
    449     -19.1933      1.00000
    450     -19.1926      1.00000
    451     -19.1649      1.00000
    452     -19.1642      1.00000
    453     -19.1628      1.00000
    454     -19.1621      1.00000
    455     -19.1506      1.00000
    456     -19.1500      1.00000
    457     -19.1327      1.00000
    458     -19.1320      1.00000
    459     -19.1140      1.00000
    460     -19.1132      1.00000
    461     -19.1115      1.00000
    462     -19.1114      1.00000
    463     -19.0754      1.00000
    464     -19.0750      1.00000
    465     -19.0618      1.00000
    466     -19.0616      1.00000
    467     -19.0354      1.00000
    468     -19.0352      1.00000
    469     -19.0333      1.00000
    470     -19.0331      1.00000
    471     -19.0226      1.00000
    472     -19.0223      1.00000
    473     -19.0166      1.00000
    474     -19.0165      1.00000
    475     -18.9971      1.00000
    476     -18.9966      1.00000
    477     -18.9735      1.00000
    478     -18.9729      1.00000
    479     -18.9712      1.00000
    480     -18.9709      1.00000
    481     -18.9044      1.00000
    482     -18.9036      1.00000
    483     -18.8497      1.00000
    484     -18.8482      1.00000
    485     -18.8464      1.00000
    486     -18.8451      1.00000
    487     -18.2988      1.00000
    488     -18.2969      1.00000
    489     -18.2944      1.00000
    490     -18.2932      1.00000
    491     -18.2646      1.00000
    492     -18.2632      1.00000
    493     -16.9287      1.00000
    494     -16.9255      1.00000
    495     -16.9005      1.00000
    496     -16.8971      1.00000
    497     -16.8758      1.00000
    498     -16.8727      1.00000
    499     -16.6586      1.00000
    500     -16.6561      1.00000
    501     -16.6483      1.00000
    502     -16.6460      1.00000
    503     -16.3603      1.00000
    504     -16.3589      1.00000
    505     -16.3516      1.00000
    506     -16.3483      1.00000
    507     -16.2616      1.00000
    508     -16.2599      1.00000
    509     -16.1960      1.00000
    510     -16.1939      1.00000
    511     -15.7647      1.00000
    512     -15.7631      1.00000
    513     -15.7197      1.00000
    514     -15.7190      1.00000
    515     -15.7169      1.00000
    516     -15.7139      1.00000
    517     -15.2424      1.00000
    518     -15.2375      1.00000
    519     -15.1732      1.00000
    520     -15.1722      1.00000
    521     -15.1711      1.00000
    522     -15.1693      1.00000
    523     -14.7234      1.00000
    524     -14.7217      1.00000
    525     -14.6086      1.00000
    526     -14.6072      1.00000
    527     -14.6027      1.00000
    528     -14.5998      1.00000
    529     -14.5039      1.00000
    530     -14.5002      1.00000
    531     -14.3320      1.00000
    532     -14.3300      1.00000
    533     -14.2688      1.00000
    534     -14.2684      1.00000
    535     -14.2676      1.00000
    536     -14.2669      1.00000
    537     -14.2498      1.00000
    538     -14.2471      1.00000
    539     -14.2322      1.00000
    540     -14.2269      1.00000
    541     -14.1922      1.00000
    542     -14.1859      1.00000
    543     -13.4474      1.00000
    544     -13.4440      1.00000
    545     -13.4412      1.00000
    546     -13.4394      1.00000
    547     -12.8080      1.00000
    548     -12.7997      1.00000
    549     -12.7882      1.00000
    550     -12.7791      1.00000
    551     -12.7681      1.00000
    552     -12.7641      1.00000
    553     -12.6857      1.00000
    554     -12.6773      1.00000
    555     -12.6727      1.00000
    556     -12.6687      1.00000
    557     -12.3933      1.00000
    558     -12.3916      1.00000
    559     -12.3506      1.00000
    560     -12.3495      1.00000
    561     -12.3477      1.00000
    562     -12.3453      1.00000
    563     -11.9987      1.00000
    564     -11.9926      1.00000
    565     -11.9783      1.00000
    566     -11.9751      1.00000
    567     -11.9450      1.00000
    568     -11.9409      1.00000
    569     -11.1811      1.00000
    570     -11.1698      1.00000
    571     -10.9846      1.00000
    572     -10.9776      1.00000
    573     -10.9691      1.00000
    574     -10.9626      1.00000
    575     -10.9099      1.00000
    576     -10.9052      1.00000
    577     -10.8936      1.00000
    578     -10.8875      1.00000
    579     -10.8822      1.00000
    580     -10.8767      1.00000
    581     -10.8631      1.00000
    582     -10.8610      1.00000
    583     -10.1451      1.00000
    584     -10.1348      1.00000
    585      -9.5932      0.72523
    586      -9.5908      0.69837
    587      -9.5861      0.63935
    588      -9.5535      0.53644
    589      -9.4769      0.49319
    590      -9.4744      0.47417
    591      -9.4738      0.00037
    592      -9.4586      0.00027
    593      -9.4086      0.00013
    594      -9.4080      0.00007
    595      -9.3977      0.00000
    596      -9.3910      0.00000
    597      -9.0851      0.00000
    598      -9.0833      0.00000
    599      -9.0824      0.00000
    600      -9.0800      0.00000
    601      -8.9045      0.00000
    602      -8.8976      0.00000
    603      -8.8920      0.00000
    604      -8.8752      0.00000
    605      -8.8723      0.00000
    606      -8.8647      0.00000
    607      -8.8589      0.00000
    608      -8.8574      0.00000
    609      -8.7817      0.00000
    610      -8.7698      0.00000
    611      -8.4769      0.00000
    612      -8.4755      0.00000
    613      -8.4740      0.00000
    614      -8.4725      0.00000
    615      -8.4474      0.00000
    616      -8.4442      0.00000
    617      -8.3061      0.00000
    618      -8.2885      0.00000
    619      -8.1299      0.00000
    620      -8.1275      0.00000
    621      -8.1102      0.00000
    622      -8.0994      0.00000
    623      -8.0797      0.00000
    624      -8.0748      0.00000
    625      -7.4703      0.00000
    626      -7.4570      0.00000
    627      -7.4499      0.00000
    628      -7.4160      0.00000
    629      -7.2360      0.00000
    630      -7.2291      0.00000
    631      -7.2200      0.00000
    632      -7.1985      0.00000
    633      -7.1859      0.00000
    634      -7.1708      0.00000
    635      -7.1588      0.00000
    636      -7.1445      0.00000
    637      -6.6036      0.00000
    638      -6.5998      0.00000
    639      -6.5450      0.00000
    640      -6.5446      0.00000
    641      -6.5311      0.00000
    642      -6.5208      0.00000
    643      -6.4735      0.00000
    644      -6.4617      0.00000
    645      -6.4561      0.00000
    646      -6.4316      0.00000
    647      -6.4247      0.00000
    648      -6.4188      0.00000
    649      -6.4044      0.00000
    650      -6.3971      0.00000
    651      -6.3924      0.00000
    652      -6.3922      0.00000
    653      -6.2317      0.00000
    654      -6.2307      0.00000
    655      -6.2228      0.00000
    656      -6.2052      0.00000
    657      -6.1300      0.00000
    658      -6.1245      0.00000
    659      -6.0846      0.00000
    660      -6.0677      0.00000
    661      -6.0410      0.00000
    662      -5.9430      0.00000
    663      -5.6633      0.00000
    664      -5.6514      0.00000
    665      -5.6470      0.00000
    666      -5.6149      0.00000
    667      -5.5635      0.00000
    668      -5.5572      0.00000
    669      -5.5092      0.00000
    670      -5.5027      0.00000
    671      -5.4729      0.00000
    672      -5.4232      0.00000
    673      -5.3649      0.00000
    674      -5.3170      0.00000
    675      -5.2678      0.00000
    676      -5.2601      0.00000
    677      -5.2259      0.00000
    678      -5.1736      0.00000
    679      -5.0623      0.00000
    680      -4.9797      0.00000
    681      -4.6556      0.00000
    682      -4.5690      0.00000
    683      -4.4867      0.00000
    684      -4.2929      0.00000
    685      -4.2577      0.00000
    686      -4.2059      0.00000
    687      -4.0648      0.00000
    688      -4.0587      0.00000
    689      -4.0306      0.00000
    690      -3.9580      0.00000
    691      -3.9320      0.00000
    692      -3.7988      0.00000
    693      -3.7819      0.00000
    694      -3.7791      0.00000
    695      -3.7486      0.00000
    696      -3.6913      0.00000
    697      -3.5135      0.00000
    698      -3.4410      0.00000
    699      -3.0321      0.00000
    700      -2.7276      0.00000
    701      -2.6902      0.00000
    702      -2.6812      0.00000
    703      -2.6132      0.00000
    704      -2.5419      0.00000
    705      -2.4995      0.00000
    706      -2.4398      0.00000
    707      -2.4248      0.00000
    708      -2.3100      0.00000
    709      -2.3100      0.00000
    710      -2.2978      0.00000
    711      -2.2486      0.00000
    712      -2.1167      0.00000
    713      -1.9787      0.00000
    714      -1.9009      0.00000
    715      -1.8937      0.00000
    716      -1.8906      0.00000
    717      -1.8838      0.00000
    718      -1.8822      0.00000
    719      -1.7878      0.00000
    720      -1.7358      0.00000
    721      -1.6329      0.00000
    722      -1.6181      0.00000
    723      -1.4060      0.00000
    724      -1.3539      0.00000
    725      -1.3380      0.00000
    726      -1.1874      0.00000
    727      -1.0605      0.00000
    728      -1.0133      0.00000
    729      -0.8480      0.00000
    730      -0.8046      0.00000
    731      -0.7076      0.00000
    732      -0.6682      0.00000
    733      -0.4847      0.00000
    734      -0.4621      0.00000
    735      -0.3380      0.00000
    736      -0.2171      0.00000
    737      -0.2047      0.00000
    738      -0.1911      0.00000
    739      -0.1557      0.00000
    740      -0.1066      0.00000
    741       0.0293      0.00000
    742       0.0593      0.00000
    743       0.0889      0.00000
    744       0.1046      0.00000
    745       0.1256      0.00000
    746       0.1398      0.00000
    747       0.1533      0.00000
    748       0.1845      0.00000
    749       0.1851      0.00000
    750       0.2296      0.00000
    751       0.2728      0.00000
    752       0.2884      0.00000
    753       0.2930      0.00000
    754       0.3390      0.00000
    755       0.3738      0.00000
    756       0.3747      0.00000
    757       0.3924      0.00000
    758       0.4018      0.00000
    759       0.4291      0.00000
    760       0.4524      0.00000
    761       0.4805      0.00000
    762       0.4925      0.00000
    763       0.5342      0.00000
    764       0.5503      0.00000
    765       0.5796      0.00000
    766       0.6061      0.00000
    767       0.6090      0.00000
    768       0.6571      0.00000
    769       0.6584      0.00000
    770       0.7147      0.00000
    771       0.7357      0.00000
    772       0.7455      0.00000
    773       0.7842      0.00000
    774       0.8136      0.00000
    775       0.8420      0.00000
    776       0.8729      0.00000

 k-point     2 :       0.5000    0.0000    0.0000
  band No.  band energies     occupation 
      1    -222.1568      1.00000
      2    -222.1566      1.00000
      3    -222.1549      1.00000
      4    -222.1547      1.00000
      5    -221.0580      1.00000
      6    -221.0578      1.00000
      7    -221.0512      1.00000
      8    -221.0510      1.00000
      9    -221.0505      1.00000
     10    -221.0503      1.00000
     11    -206.6120      1.00000
     12    -206.6103      1.00000
     13    -170.9675      1.00000
     14    -170.9673      1.00000
     15    -170.8145      1.00000
     16    -170.8141      1.00000
     17    -170.8137      1.00000
     18    -170.8133      1.00000
     19    -147.3831      1.00000
     20    -147.3825      1.00000
     21    -136.8567      1.00000
     22    -136.8562      1.00000
     23    -135.2450      1.00000
     24    -135.2446      1.00000
     25    -135.2406      1.00000
     26    -135.2397      1.00000
     27    -109.4763      1.00000
     28    -109.4760      1.00000
     29    -109.4698      1.00000
     30    -109.4697      1.00000
     31    -109.3463      1.00000
     32    -109.3461      1.00000
     33    -109.2153      1.00000
     34    -109.2151      1.00000
     35    -109.2139      1.00000
     36    -109.2136      1.00000
     37    -101.8580      1.00000
     38    -101.8572      1.00000
     39    -101.6017      1.00000
     40    -101.6013      1.00000
     41    -101.5983      1.00000
     42    -101.5979      1.00000
     43    -101.5975      1.00000
     44    -101.5970      1.00000
     45    -101.5648      1.00000
     46    -101.5642      1.00000
     47    -101.5614      1.00000
     48    -101.5610      1.00000
     49    -101.5607      1.00000
     50    -101.5604      1.00000
     51     -87.1087      1.00000
     52     -87.1079      1.00000
     53     -77.8966      1.00000
     54     -77.8959      1.00000
     55     -77.8035      1.00000
     56     -77.8026      1.00000
     57     -77.7502      1.00000
     58     -77.7496      1.00000
     59     -72.2810      1.00000
     60     -72.2805      1.00000
     61     -70.9710      1.00000
     62     -70.9707      1.00000
     63     -70.9405      1.00000
     64     -70.9402      1.00000
     65     -70.9305      1.00000
     66     -70.9301      1.00000
     67     -70.6287      1.00000
     68     -70.6285      1.00000
     69     -70.4198      1.00000
     70     -70.4196      1.00000
     71     -70.4136      1.00000
     72     -70.4130      1.00000
     73     -70.3784      1.00000
     74     -70.3780      1.00000
     75     -70.3741      1.00000
     76     -70.3738      1.00000
     77     -70.3664      1.00000
     78     -70.3660      1.00000
     79     -70.3572      1.00000
     80     -70.3567      1.00000
     81     -70.3369      1.00000
     82     -70.3366      1.00000
     83     -69.3773      1.00000
     84     -69.3772      1.00000
     85     -69.3721      1.00000
     86     -69.3720      1.00000
     87     -67.7211      1.00000
     88     -67.7207      1.00000
     89     -67.2017      1.00000
     90     -67.2015      1.00000
     91     -67.1434      1.00000
     92     -67.1432      1.00000
     93     -67.1259      1.00000
     94     -67.1256      1.00000
     95     -65.5233      1.00000
     96     -65.5227      1.00000
     97     -65.5217      1.00000
     98     -65.5209      1.00000
     99     -65.2121      1.00000
    100     -65.2115      1.00000
    101     -64.5319      1.00000
    102     -64.5317      1.00000
    103     -64.4561      1.00000
    104     -64.4557      1.00000
    105     -64.1725      1.00000
    106     -64.1722      1.00000
    107     -64.1502      1.00000
    108     -64.1497      1.00000
    109     -64.0080      1.00000
    110     -64.0079      1.00000
    111     -63.9777      1.00000
    112     -63.9775      1.00000
    113     -63.8576      1.00000
    114     -63.8571      1.00000
    115     -63.4681      1.00000
    116     -63.4679      1.00000
    117     -63.4607      1.00000
    118     -63.4601      1.00000
    119     -63.3672      1.00000
    120     -63.3670      1.00000
    121     -63.2930      1.00000
    122     -63.2921      1.00000
    123     -63.0346      1.00000
    124     -63.0342      1.00000
    125     -62.9723      1.00000
    126     -62.9722      1.00000
    127     -62.5526      1.00000
    128     -62.5522      1.00000
    129     -62.5443      1.00000
    130     -62.5440      1.00000
    131     -62.3920      1.00000
    132     -62.3917      1.00000
    133     -61.8723      1.00000
    134     -61.8720      1.00000
    135     -61.5724      1.00000
    136     -61.5720      1.00000
    137     -61.5359      1.00000
    138     -61.5358      1.00000
    139     -61.5010      1.00000
    140     -61.5006      1.00000
    141     -58.4643      1.00000
    142     -58.4639      1.00000
    143     -52.1034      1.00000
    144     -52.1025      1.00000
    145     -52.1014      1.00000
    146     -52.1013      1.00000
    147     -52.0850      1.00000
    148     -52.0839      1.00000
    149     -50.0293      1.00000
    150     -50.0286      1.00000
    151     -50.0279      1.00000
    152     -50.0273      1.00000
    153     -49.9544      1.00000
    154     -49.9541      1.00000
[...]
 l=   3
     0.0000000     0.0000000     0.0000000     0.0000000     0.0000000     0.0000000     0.0000000
     0.0000000     0.0000000     0.0000000     0.0000000     0.0000000     0.0000000     0.0000000
     0.0000000     0.0000000     0.0000000     0.0000000     0.0000000     0.0000000     0.0000000
     0.0000000     0.0000000     0.0000000     0.0000000     0.0000000     0.0000000     0.0000000
     0.0000000     0.0000000     0.0000000     0.0000000     0.0000000     0.0000000     0.0000000
     0.0000000     0.0000000     0.0000000     0.0000000     0.0000000     0.0000000     0.0000000
     0.0000000     0.0000000     0.0000000     0.0000000     0.0000000     0.0000000     0.0000000

 Ion:   61  E_soc:     -0.0001325
 l=   1
     0.0000000    -0.0000201    -0.0000245
    -0.0000201     0.0000000    -0.0000172
    -0.0000245    -0.0000172     0.0000000
 l=   2
     0.0000000    -0.0000005     0.0000000    -0.0000005    -0.0000012
    -0.0000005     0.0000000    -0.0000007    -0.0000004    -0.0000002
     0.0000000    -0.0000007     0.0000000    -0.0000006     0.0000000
    -0.0000005    -0.0000004    -0.0000006     0.0000000    -0.0000002
    -0.0000012    -0.0000002     0.0000000    -0.0000002     0.0000000
 l=   3
     0.0000000     0.0000000     0.0000000     0.0000000     0.0000000     0.0000000     0.0000000
     0.0000000     0.0000000     0.0000000     0.0000000     0.0000000     0.0000000     0.0000000
     0.0000000     0.0000000     0.0000000     0.0000000     0.0000000     0.0000000     0.0000000
     0.0000000     0.0000000     0.0000000     0.0000000     0.0000000     0.0000000     0.0000000
     0.0000000     0.0000000     0.0000000     0.0000000     0.0000000     0.0000000     0.0000000
     0.0000000     0.0000000     0.0000000     0.0000000     0.0000000     0.0000000     0.0000000
     0.0000000     0.0000000     0.0000000     0.0000000     0.0000000     0.0000000     0.0000000

 Ion:   62  E_soc:     -0.0001447
 l=   1
     0.0000000    -0.0000266    -0.0000224
    -0.0000266     0.0000000    -0.0000191
    -0.0000224    -0.0000191     0.0000000
 l=   2
     0.0000000    -0.0000006     0.0000000    -0.0000003    -0.0000010
    -0.0000006     0.0000000    -0.0000009    -0.0000005    -0.0000004
     0.0000000    -0.0000009     0.0000000    -0.0000006     0.0000000
    -0.0000003    -0.0000005    -0.0000006     0.0000000    -0.0000002
    -0.0000010    -0.0000004     0.0000000    -0.0000002     0.0000000
 l=   3
     0.0000000     0.0000000     0.0000000     0.0000000     0.0000000     0.0000000     0.0000000
     0.0000000     0.0000000     0.0000000     0.0000000     0.0000000     0.0000000     0.0000000
     0.0000000     0.0000000     0.0000000     0.0000000     0.0000000     0.0000000     0.0000000
     0.0000000     0.0000000     0.0000000     0.0000000     0.0000000     0.0000000     0.0000000
     0.0000000     0.0000000     0.0000000     0.0000000     0.0000000     0.0000000     0.0000000
     0.0000000     0.0000000     0.0000000     0.0000000     0.0000000     0.0000000     0.0000000
     0.0000000     0.0000000     0.0000000     0.0000000     0.0000000     0.0000000     0.0000000

 Ion:   63  E_soc:     -0.3344005
 l=   1
     0.0000000    -0.0402226    -0.0402183
    -0.0402226     0.0000000    -0.0412107
    -0.0402183    -0.0412107     0.0000000
 l=   2
     0.0000000    -0.0036912     0.0000000    -0.0035970    -0.0112829
    -0.0036912     0.0000000    -0.0089246    -0.0036127    -0.0022422
     0.0000000    -0.0089246     0.0000000    -0.0091629     0.0000000
    -0.0035970    -0.0036127    -0.0091629     0.0000000    -0.0030354
    -0.0112829    -0.0022422     0.0000000    -0.0030354     0.0000000
 l=   3
     0.0000000     0.0000000     0.0000000     0.0000000     0.0000000     0.0000000     0.0000000
     0.0000000     0.0000000     0.0000000     0.0000000     0.0000000     0.0000000     0.0000000
     0.0000000     0.0000000     0.0000000     0.0000000     0.0000000     0.0000000     0.0000000
     0.0000000     0.0000000     0.0000000     0.0000000     0.0000000     0.0000000     0.0000000
     0.0000000     0.0000000     0.0000000     0.0000000     0.0000000     0.0000000     0.0000000
     0.0000000     0.0000000     0.0000000     0.0000000     0.0000000     0.0000000     0.0000000
     0.0000000     0.0000000     0.0000000     0.0000000     0.0000000     0.0000000     0.0000000

 Ion:   64  E_soc:     -0.0001372
 l=   1
     0.0000000    -0.0000267    -0.0000209
    -0.0000267     0.0000000    -0.0000167
    -0.0000209    -0.0000167     0.0000000
 l=   2
     0.0000000    -0.0000005     0.0000000    -0.0000003    -0.0000010
    -0.0000005     0.0000000    -0.0000008    -0.0000005    -0.0000004
     0.0000000    -0.0000008     0.0000000    -0.0000006     0.0000000
    -0.0000003    -0.0000005    -0.0000006     0.0000000    -0.0000002
    -0.0000010    -0.0000004     0.0000000    -0.0000002     0.0000000
 l=   3
     0.0000000     0.0000000     0.0000000     0.0000000     0.0000000     0.0000000     0.0000000
     0.0000000     0.0000000     0.0000000     0.0000000     0.0000000     0.0000000     0.0000000
     0.0000000     0.0000000     0.0000000     0.0000000     0.0000000     0.0000000     0.0000000
     0.0000000     0.0000000     0.0000000     0.0000000     0.0000000     0.0000000     0.0000000
     0.0000000     0.0000000     0.0000000     0.0000000     0.0000000     0.0000000     0.0000000
     0.0000000     0.0000000     0.0000000     0.0000000     0.0000000     0.0000000     0.0000000
     0.0000000     0.0000000     0.0000000     0.0000000     0.0000000     0.0000000     0.0000000

 Ion:   65  E_soc:     -0.3330576
 l=   1
     0.0000000    -0.0401515    -0.0401907
    -0.0401515     0.0000000    -0.0413124
    -0.0401907    -0.0413124     0.0000000
 l=   2
     0.0000000    -0.0036179     0.0000000    -0.0035652    -0.0110617
    -0.0036179     0.0000000    -0.0088238    -0.0035189    -0.0022086
     0.0000000    -0.0088238     0.0000000    -0.0090906     0.0000000
    -0.0035652    -0.0035189    -0.0090906     0.0000000    -0.0029876
    -0.0110617    -0.0022086     0.0000000    -0.0029876     0.0000000
 l=   3
     0.0000000     0.0000000     0.0000000     0.0000000     0.0000000     0.0000000     0.0000000
     0.0000000     0.0000000     0.0000000     0.0000000     0.0000000     0.0000000     0.0000000
     0.0000000     0.0000000     0.0000000     0.0000000     0.0000000     0.0000000     0.0000000
     0.0000000     0.0000000     0.0000000     0.0000000     0.0000000     0.0000000     0.0000000
     0.0000000     0.0000000     0.0000000     0.0000000     0.0000000     0.0000000     0.0000000
     0.0000000     0.0000000     0.0000000     0.0000000     0.0000000     0.0000000     0.0000000
     0.0000000     0.0000000     0.0000000     0.0000000     0.0000000     0.0000000     0.0000000



 total charge     

# of ion       s       p       d       tot
------------------------------------------
    1        1.701   4.390  15.261  21.352
    2        0.204   0.130   9.470   9.804
    3        0.209   0.132   9.473   9.814
    4        0.000   0.000   0.001   0.001
    5        0.205   0.130   9.470   9.805
    6        0.000   0.000   0.001   0.001
    7        0.000   0.000   0.001   0.001
    8        0.000   0.000   0.000   0.000
    9        0.209   0.132   9.473   9.813
   10        1.698   4.385  15.259  21.342
   11        0.000   0.000   0.001   0.001
   12        0.205   0.130   9.470   9.805
   13        0.000   0.000   0.001   0.001
   14        0.205   0.130   9.470   9.805
   15        0.000   0.000   0.000   0.000
   16        0.000   0.000   0.001   0.001
   17        0.000   0.000   0.001   0.001
   18        0.207   0.130   9.469   9.807
   19        0.000   0.000   0.000   0.000
   20        0.000   0.000   0.001   0.001
   21        0.207   0.130   9.469   9.806
   22        1.689   4.359  15.179  21.227
   23        0.000   0.000   0.001   0.002
   24        0.206   0.130   9.469   9.806
   25        0.210   0.132   9.473   9.815
   26        0.000   0.000   0.001   0.001
   27        0.000   0.000   0.001   0.001
   28        0.000   0.000   0.000   0.000
   29        1.699   4.386  15.259  21.345
   30        0.204   0.129   9.470   9.804
   31        0.205   0.130   9.470   9.805
   32        0.000   0.000   0.001   0.001
   33       17.107  36.074  63.619 116.800
   34        0.004   0.003   0.001   0.008
   35        1.750   4.046   4.519  10.315
   36        0.000   0.000   0.000   0.000
   37        0.004   0.003   0.001   0.008
   38        0.004   0.003   0.001   0.008
   39        1.747   4.038   4.471  10.256
   40        0.000   0.000   0.000   0.000
   41        0.004   0.003   0.001   0.008
   42        0.379   0.158   0.014   0.551
   43        0.279   0.141   0.017   0.437
   44        0.279   0.141   0.017   0.437
   45        0.356   0.151   0.013   0.520
   46        0.279   0.141   0.017   0.437
   47        0.355   0.150   0.013   0.519
   48        0.356   0.151   0.013   0.520
   49        0.274   0.138   0.017   0.429
   50        0.004   0.003   0.001   0.008
   51        0.004   0.003   0.001   0.008
   52        0.000   0.000   0.000   0.000
   53        0.000   0.000   0.000   0.000
   54        1.750   4.045   4.520  10.315
   55        1.747   4.038   4.472  10.258
   56        0.004   0.003   0.001   0.008
   57        0.004   0.003   0.001   0.008
   58        0.000   0.000   0.000   0.000
   59        0.004   0.003   0.001   0.008
   60        0.000   0.000   0.000   0.000
   61        0.004   0.003   0.001   0.008
   62        0.004   0.003   0.001   0.008
   63        1.750   4.045   4.517  10.312
   64        0.004   0.003   0.001   0.008
   65        1.747   4.039   4.473  10.259
--------------------------------------------------
tot         39.471  80.622 265.337 385.430



 magnetization (x)

# of ion       s       p       d       tot
------------------------------------------
    1        0.002   0.004   0.001   0.006
    2       -0.000  -0.000  -0.000  -0.000
    3        0.000   0.000   0.000   0.001
    4       -0.000  -0.000   0.000   0.000
    5        0.000   0.000   0.000   0.000
    6        0.000   0.000  -0.000  -0.000
    7       -0.000   0.000  -0.000  -0.000
    8        0.000   0.000  -0.000  -0.000
    9       -0.000  -0.000  -0.000  -0.000
   10        0.001   0.002   0.002   0.004
   11       -0.000  -0.000   0.000   0.000
   12        0.000  -0.000   0.000   0.000
   13        0.000  -0.000   0.000   0.000
   14        0.000   0.000   0.000   0.000
   15       -0.000   0.000  -0.000  -0.000
   16       -0.000   0.000  -0.000  -0.000
   17       -0.000  -0.000  -0.000  -0.000
   18        0.000   0.000  -0.000   0.000
   19       -0.000   0.000  -0.000  -0.000
   20       -0.000  -0.000   0.000   0.000
   21       -0.000   0.000  -0.000  -0.000
   22        0.001   0.001   0.001   0.002
   23       -0.000  -0.000  -0.000  -0.000
   24        0.000   0.000   0.000   0.001
   25        0.000   0.000   0.000   0.000
   26        0.000   0.000  -0.000  -0.000
   27       -0.000  -0.000   0.000   0.000
   28        0.000   0.000  -0.000  -0.000
   29        0.000  -0.001   0.002   0.002
   30       -0.000  -0.000   0.000  -0.000
   31        0.000   0.000   0.000   0.000
   32        0.000   0.000  -0.000   0.000
   33       -0.001   0.000   0.000  -0.000
   34       -0.000   0.000  -0.000  -0.000
   35       -0.000   0.000   0.003   0.003
   36        0.000   0.000  -0.000   0.000
   37       -0.000   0.000   0.000  -0.000
   38       -0.000  -0.000  -0.000  -0.000
   39       -0.000   0.000   0.003   0.003
   40        0.000  -0.000  -0.000  -0.000
   41       -0.000  -0.000  -0.000  -0.000
   42        0.001   0.000   0.000   0.001
   43       -0.000   0.000   0.000  -0.000
   44       -0.000  -0.000   0.000  -0.000
   45       -0.001  -0.000  -0.000  -0.001
   46        0.000   0.000   0.000   0.000
   47        0.001   0.000   0.000   0.001
   48       -0.000  -0.000   0.000  -0.000
   49       -0.000   0.000   0.000   0.000
   50        0.000  -0.000  -0.000   0.000
   51       -0.000   0.000  -0.000  -0.000
   52       -0.000  -0.000  -0.000  -0.000
   53       -0.000   0.000  -0.000  -0.000
   54       -0.000  -0.000   0.001   0.001
   55       -0.000   0.000  -0.000   0.000
   56        0.000   0.000   0.000   0.000
   57       -0.000  -0.000  -0.000  -0.000
   58       -0.000   0.000   0.000   0.000
   59       -0.000   0.000   0.000   0.000
   60       -0.000  -0.000   0.000   0.000
   61       -0.000  -0.000  -0.000  -0.000
   62        0.000   0.000   0.000   0.000
   63        0.000   0.000   0.001   0.002
   64        0.000  -0.000   0.000   0.000
   65        0.000   0.000  -0.001  -0.000
--------------------------------------------------
tot          0.004   0.008   0.014   0.026



 magnetization (y)

# of ion       s       p       d       tot
------------------------------------------
    1        0.000   0.001  -0.001  -0.000
    2        0.000  -0.000   0.000   0.000
    3       -0.001  -0.000  -0.000  -0.001
    4        0.000   0.000  -0.000  -0.000
    5       -0.000  -0.000  -0.000  -0.001
    6        0.000   0.000   0.000   0.000
    7       -0.000  -0.000  -0.000  -0.000
    8       -0.000  -0.000   0.000   0.000
    9       -0.000   0.000   0.000   0.000
   10       -0.001  -0.001  -0.001  -0.003
   11        0.000   0.000  -0.000  -0.000
   12       -0.000  -0.000  -0.000  -0.001
   13        0.000   0.000   0.000   0.000
   14       -0.000  -0.000  -0.000  -0.000
   15       -0.000   0.000   0.000   0.000
   16        0.000   0.000   0.000   0.000
   17       -0.000   0.000  -0.000  -0.000
   18       -0.000  -0.000  -0.000  -0.000
   19        0.000   0.000   0.000   0.000
   20        0.000   0.000   0.000   0.000
   21       -0.000  -0.000  -0.000  -0.000
   22       -0.001  -0.002  -0.001  -0.004
   23       -0.000   0.000   0.000   0.000
   24       -0.000  -0.000  -0.000  -0.001
   25       -0.000  -0.000  -0.000  -0.000
   26       -0.000  -0.000   0.000   0.000
   27        0.000   0.000   0.000   0.000
   28       -0.000   0.000   0.000   0.000
   29        0.001   0.001  -0.001  -0.000
   30        0.000  -0.000  -0.000   0.000
   31       -0.000  -0.000  -0.000  -0.001
   32        0.000   0.000   0.000   0.000
   33        0.000  -0.000  -0.001  -0.001
   34       -0.000  -0.000   0.000  -0.000
   35       -0.000  -0.000  -0.000  -0.001
   36       -0.000  -0.000   0.000   0.000
   37        0.000  -0.000  -0.000   0.000
   38        0.000   0.000   0.000   0.000
   39       -0.000  -0.000  -0.001  -0.002
   40       -0.000  -0.000   0.000   0.000
   41       -0.000  -0.000  -0.000  -0.000
   42        0.000   0.000  -0.000   0.000
   43        0.000  -0.000  -0.000  -0.000
   44        0.000   0.000  -0.000   0.000
   45       -0.000  -0.000  -0.000  -0.000
   46        0.000   0.000  -0.000   0.000
   47       -0.002  -0.000  -0.000  -0.002
   48       -0.001  -0.000  -0.000  -0.001
   49        0.000   0.000   0.000   0.000
   50       -0.000  -0.000  -0.000  -0.000
   51       -0.000  -0.000   0.000  -0.000
   52        0.000  -0.000  -0.000  -0.000
   53        0.000  -0.000  -0.000  -0.000
   54        0.000   0.000   0.000   0.000
   55       -0.000   0.000  -0.003  -0.002
   56        0.000  -0.000   0.000   0.000
   57       -0.000  -0.000  -0.000  -0.000
   58       -0.000   0.000   0.000   0.000
   59       -0.000  -0.000   0.000  -0.000
   60       -0.000   0.000   0.000   0.000
   61        0.000   0.000  -0.000   0.000
   62        0.000   0.000   0.000   0.000
   63       -0.000  -0.000  -0.001  -0.001
   64        0.000  -0.000   0.000   0.000
   65       -0.000  -0.000   0.000  -0.000
--------------------------------------------------
tot         -0.006  -0.005  -0.011  -0.021



 magnetization (z)

# of ion       s       p       d       tot
------------------------------------------
    1       -0.000  -0.001  -0.001  -0.002
    2        0.000  -0.000  -0.000  -0.000
    3       -0.000  -0.000  -0.000  -0.000
    4        0.000   0.000   0.000   0.000
    5       -0.000  -0.000  -0.000  -0.000
    6       -0.000  -0.000   0.000  -0.000
    7        0.000   0.000  -0.000  -0.000
    8        0.000  -0.000   0.000   0.000
    9       -0.000  -0.000  -0.000  -0.000
   10        0.001   0.001  -0.002  -0.001
   11        0.000  -0.000   0.000   0.000
   12        0.000   0.000  -0.000   0.000
   13       -0.000  -0.000   0.000   0.000
   14       -0.000  -0.000  -0.000  -0.001
   15        0.000   0.000   0.000   0.000
   16        0.000   0.000  -0.000   0.000
   17       -0.000  -0.000  -0.000  -0.000
   18       -0.000  -0.000  -0.000  -0.001
   19       -0.000  -0.000  -0.000  -0.000
   20       -0.000  -0.000  -0.000  -0.000
   21       -0.000  -0.000   0.000  -0.000
   22       -0.002  -0.002  -0.000  -0.004
   23        0.000  -0.000  -0.000  -0.000
   24       -0.000  -0.000   0.000  -0.000
   25       -0.000  -0.000  -0.000  -0.001
   26        0.000   0.000  -0.000   0.000
   27        0.000  -0.000  -0.000  -0.000
   28       -0.000  -0.000  -0.000  -0.000
   29       -0.000   0.000  -0.001  -0.001
   30       -0.000  -0.000  -0.000  -0.000
   31       -0.000  -0.000   0.000  -0.000
   32       -0.000  -0.000  -0.000  -0.000
   33       -0.000   0.000  -0.000  -0.000
   34       -0.000  -0.000  -0.000  -0.000
   35       -0.000  -0.000  -0.001  -0.002
   36       -0.000   0.000   0.000   0.000
   37       -0.000  -0.000  -0.000  -0.000
   38       -0.000  -0.000  -0.000  -0.000
   39       -0.000  -0.000  -0.002  -0.002
   40       -0.000  -0.000  -0.000  -0.000
   41       -0.000   0.000   0.000  -0.000
   42       -0.002  -0.001  -0.000  -0.002
   43        0.000   0.000   0.000   0.000
   44       -0.000  -0.000  -0.000  -0.000
   45       -0.001  -0.000  -0.000  -0.002
   46        0.000   0.000  -0.000   0.000
   47        0.000   0.000   0.000   0.000
   48        0.001   0.000   0.000   0.001
   49       -0.000   0.000   0.000  -0.000
   50        0.000   0.000   0.000   0.000
   51       -0.000  -0.000  -0.000  -0.000
   52       -0.000   0.000   0.000   0.000
   53        0.000  -0.000  -0.000  -0.000
   54       -0.000  -0.000  -0.000  -0.000
   55        0.000  -0.000  -0.000  -0.001
   56        0.000  -0.000  -0.000  -0.000
   57        0.000  -0.000  -0.000   0.000
   58       -0.000  -0.000  -0.000  -0.000
   59       -0.000   0.000  -0.000  -0.000
   60        0.000  -0.000   0.000   0.000
   61       -0.000  -0.000  -0.000  -0.000
   62       -0.000   0.000   0.000   0.000
   63       -0.000  -0.000   0.002   0.002
   64       -0.000  -0.000  -0.000  -0.000
   65       -0.000   0.000  -0.003  -0.004
--------------------------------------------------
tot         -0.007  -0.005  -0.010  -0.022


 total amount of memory used by VASP MPI-rank0   329614. kBytes
=======================================================================

   base      :      30000. kBytes
   nonl-proj :      10272. kBytes
   fftplans  :      18744. kBytes
   grid      :      24772. kBytes
   one-center:        311. kBytes
   HF        :        129. kBytes
   nonlr-proj:      10576. kBytes
   wavefun   :     234810. kBytes

  
  
 General timing and accounting informations for this job:
 ========================================================
  
                  Total CPU time used (sec):    12491.347
                            User time (sec):    12471.737
                          System time (sec):       19.610
                         Elapsed time (sec):    12540.241
  
                   Maximum memory used (kb):      746532.
                   Average memory used (kb):           0.
  
                          Minor page faults:        67241
                          Major page faults:            1
                 Voluntary context switches:        60693
