 vasp.6.4.1 05Apr23 (build May 30 2023 08:55:05) complex                         
 executed on        HPECrayEX_GCC date 2024.02.03  13:32:13
 running 8192 mpi-ranks, with    1 threads/rank, on   64 nodes
 distrk:  each k-point on 4096 cores,    2 groups
 distr:  one band on NCORE=  32 cores,  128 groups


--------------------------------------------------------------------------------------------------------


 INCAR:
   SYSTEM = CdTe
   ISTART = 0
   ICHARG = 2
   LWAVE = .FALSE.
   LCHARG = .FALSE.
   NCSHMEM = 1
   NBLOCK_FOCK = 8
   LSCAAWARE = .TRUE.
   NELMDL = 5
   NELM = 7
   ALGO = All
   ISIF = 2
   LHFCALC = .TRUE.
   AEXX = 0.25
   HFSCREEN = 0.2
   NBANDS = 640
   ENCUT = 450
   PREC = Accurate
   PRECFOCK = Fast
   LASPH = .TRUE.
   LREAL = .FALSE.
   ISMEAR = 0
   SIGMA = 0.05
   LNONCOLLINEAR = .TRUE.
   MAGMOM = 195*0
   NCORE = 32
   KPAR = 2

 POTCAR:    PAW_PBE Cd 06Sep2000                  
 POTCAR:    PAW_PBE Te 08Apr2002                  
 POTCAR:    PAW_PBE Cd 06Sep2000                  
   VRHFIN =Cd : s2 d10                                                                              
   LEXCH  = PE                                                                                      
   EATOM  =  1293.1815 eV,   95.0462 Ry                                                             
                                                                                                    
   TITEL  = PAW_PBE Cd 06Sep2000                                                                    
   LULTRA =        F    use ultrasoft PP ?                                                          
   IUNSCR =        1    unscreen: 0-lin 1-nonlin 2-no                                               
   RPACOR =    2.000    partial core radius                                                         
   POMASS =  112.411; ZVAL   =   12.000    mass and valenz                                          
   RCORE  =    2.300    outmost cutoff radius                                                       
   RWIGS  =    2.980; RWIGS  =    1.577    wigner-seitz radius (au A)                               
   ENMAX  =  274.336; ENMIN  =  205.752 eV                                                          
   RCLOC  =    2.054    cutoff for local pot                                                        
   LCOR   =        T    correct aug charges                                                         
   LPAW   =        T    paw PP                                                                      
   EAUG   =  456.106                                                                                
   DEXC   =    0.000                                                                                
   RMAX   =    2.358    core radius for proj-oper                                                   
   RAUG   =    1.300    factor for augmentation sphere                                              
   RDEP   =    2.450    radius for radial grids                                                     
   RDEPT  =    1.955    core radius for aug-charge                                                  
                                                                                                    
   Atomic configuration                                                                             
   12 entries                                                                                       
     n  l   j            E        occ.                                                              
     1  0  0.50    -26519.7817   2.0000                                                             
     2  0  0.50     -3936.9612   2.0000                                                             
     2  1  1.50     -3532.2230   6.0000                                                             
     3  0  0.50      -733.7908   2.0000                                                             
     3  1  1.50      -601.0792   6.0000                                                             
     3  2  2.50      -393.5307  10.0000                                                             
     4  0  0.50      -105.8977   2.0000                                                             
     4  1  1.50       -66.9488   6.0000                                                             
     4  2  2.50       -11.7331  10.0000                                                             
     5  0  0.50        -5.6592   2.0000                                                             
     5  1  0.50        -1.3606   0.0000                                                             
     4  3  2.50        -1.3606   0.0000                                                             
   Description                                                                                      
     l       E           TYP  RCUT    TYP  RCUT                                                     
     2    -11.7331479     23  2.300                                                                 
     2    -13.0937305     23  2.300                                                                 
     0     -5.6591502     23  2.300                                                                 
     0     -1.5561433     23  2.300                                                                 
     1     -2.7211652     23  2.300                                                                 
     1      8.3548275     23  2.300                                                                 
  local pseudopotential read in
  partial core-charges read in
  partial kinetic energy density read in
  atomic valenz-charges read in
  non local Contribution for L=           2  read in
    real space projection operators read in
  non local Contribution for L=           2  read in
    real space projection operators read in
  non local Contribution for L=           0  read in
    real space projection operators read in
  non local Contribution for L=           0  read in
    real space projection operators read in
  non local Contribution for L=           1  read in
    real space projection operators read in
  non local Contribution for L=           1  read in
    real space projection operators read in
    PAW grid and wavefunctions read in

   number of l-projection  operators is LMAX  =           6
   number of lm-projection operators is LMMAX =          18

 POTCAR:    PAW_PBE Te 08Apr2002                  
   VRHFIN =Te: s2p4                                                                                 
   LEXCH  = PE                                                                                      
   EATOM  =   223.2721 eV,   16.4100 Ry                                                             
                                                                                                    
   TITEL  = PAW_PBE Te 08Apr2002                                                                    
   LULTRA =        F    use ultrasoft PP ?                                                          
   IUNSCR =        1    unscreen: 0-lin 1-nonlin 2-no                                               
   RPACOR =    2.200    partial core radius                                                         
   POMASS =  127.600; ZVAL   =    6.000    mass and valenz                                          
   RCORE  =    2.300    outmost cutoff radius                                                       
   RWIGS  =    2.900; RWIGS  =    1.535    wigner-seitz radius (au A)                               
   ENMAX  =  174.982; ENMIN  =  131.236 eV                                                          
   ICORE  =        3    local potential                                                             
   LCOR   =        T    correct aug charges                                                         
   LPAW   =        T    paw PP                                                                      
   EAUG   =  368.792                                                                                
   DEXC   =    0.000                                                                                
   RMAX   =    2.345    core radius for proj-oper                                                   
   RAUG   =    1.300    factor for augmentation sphere                                              
   RDEP   =    2.397    radius for radial grids                                                     
   RDEPT  =    2.174    core radius for aug-charge                                                  
                                                                                                    
   Atomic configuration                                                                             
   13 entries                                                                                       
     n  l   j            E        occ.                                                              
     1  0  0.50    -31621.2075   2.0000                                                             
     2  0  0.50     -4848.7941   2.0000                                                             
     2  1  1.50     -4352.1960   6.0000                                                             
     3  0  0.50      -964.9612   2.0000                                                             
     3  1  1.50      -803.6179   6.0000                                                             
     3  2  2.50      -559.8710  10.0000                                                             
     4  0  0.50      -164.3522   2.0000                                                             
     4  1  1.50      -114.3756   6.0000                                                             
     4  2  2.50       -41.6483  10.0000                                                             
     5  0  0.50       -15.1072   2.0000                                                             
     5  1  0.50        -5.9526   4.0000                                                             
     5  2  1.50        -5.4423   0.0000                                                             
     4  3  2.50        -5.4423   0.0000                                                             
   Description                                                                                      
     l       E           TYP  RCUT    TYP  RCUT                                                     
     0    -15.1072389     23  2.300                                                                 
     0    -16.4678215     23  2.300                                                                 
     1     -5.9526306     23  2.300                                                                 
     1     -2.4873968     23  2.300                                                                 
     2     -5.4423304     23  2.300                                                                 
     3     -1.3605826     23  2.300                                                                 
  local pseudopotential read in
  partial core-charges read in
  partial kinetic energy density read in
  atomic valenz-charges read in
  non local Contribution for L=           0  read in
    real space projection operators read in
  non local Contribution for L=           0  read in
    real space projection operators read in
  non local Contribution for L=           1  read in
    real space projection operators read in
  non local Contribution for L=           1  read in
    real space projection operators read in
  non local Contribution for L=           2  read in
    real space projection operators read in
    PAW grid and wavefunctions read in

   number of l-projection  operators is LMAX  =           5
   number of lm-projection operators is LMMAX =          13

 -----------------------------------------------------------------------------
|                                                                             |
|               ----> ADVICE to this user running VASP <----                  |
|                                                                             |
|     You have a (more or less) 'large supercell' and for larger cells it     |
|     might be more efficient to use real-space projection operators.         |
|     Therefore, try LREAL= Auto in the INCAR file.                           |
|     Mind: For very accurate calculation, you might also keep the            |
|     reciprocal projection scheme (i.e. LREAL=.FALSE.).                      |
|                                                                             |
 -----------------------------------------------------------------------------

  PAW_PBE Cd 06Sep2000                  :
 energy of atom  1       EATOM=-1293.1815
 kinetic energy error for atom=    0.0084 (will be added to EATOM!!)
  PAW_PBE Te 08Apr2002                  :
 energy of atom  2       EATOM= -223.2721
 kinetic energy error for atom=    0.0008 (will be added to EATOM!!)


 POSCAR: Cd33 Te32
  positions in direct lattice
  No initial velocities read in
 exchange correlation table for  LEXCH =        8
   RHO(1)=    0.500       N(1)  =     2000
   RHO(2)=  100.500       N(2)  =     4000



--------------------------------------------------------------------------------------------------------


 ion  position               nearest neighbor table
   1  0.004  0.996  0.004-  44 2.79  35 2.93  54 2.93  65 2.93  33 2.94
   2  0.001  0.999  0.497-  55 2.82  34 2.82  64 2.82  45 2.84
   3  0.001  0.503  0.001-  63 2.82  56 2.82  37 2.82  42 2.84
   4  1.000  0.501  0.499-  57 2.82  62 2.82  36 2.82  43 2.84
   5  0.497  0.999  0.001-  39 2.82  50 2.82  61 2.82  48 2.84
   6  0.499  0.000  0.499-  38 2.82  51 2.82  60 2.82  49 2.84
   7  0.499  0.501  1.000-  41 2.82  59 2.82  52 2.82  46 2.84
   8  0.501  0.499  0.501-  47 2.82  40 2.83  53 2.83  58 2.83
   9  0.001  0.251  0.253-  54 2.82  34 2.82  62 2.82  42 2.84
  10  0.004  0.254  0.746-  43 2.79  35 2.93  55 2.93  63 2.93  33 2.94
  11  1.000  0.749  0.251-  56 2.82  64 2.82  36 2.82  44 2.84
  12  0.001  0.747  0.749-  65 2.82  57 2.82  37 2.82  45 2.84
  13  0.499  0.250  0.251-  38 2.82  50 2.82  58 2.82  46 2.84
  14  0.497  0.251  0.749-  39 2.82  51 2.82  59 2.82  47 2.84
  15  0.501  0.751  0.249-  48 2.82  40 2.83  52 2.83  60 2.83
  16  0.499  0.749  0.750-  41 2.82  61 2.82  53 2.82  49 2.84
  17  0.251  0.000  0.251-  34 2.82  50 2.82  60 2.82  44 2.84
  18  0.253  0.999  0.749-  35 2.82  51 2.82  61 2.82  45 2.84
  19  0.249  0.499  0.249-  42 2.82  36 2.83  52 2.83  58 2.83
  20  0.251  0.501  0.750-  37 2.82  59 2.82  53 2.82  43 2.84
  21  0.749  0.999  0.253-  54 2.82  38 2.82  64 2.82  48 2.84
  22  0.746  0.996  0.746-  49 2.79  39 2.93  55 2.93  65 2.93  33 2.94
  23  0.750  0.501  0.251-  56 2.82  62 2.82  40 2.82  46 2.84
  24  0.749  0.503  0.749-  63 2.82  57 2.82  41 2.82  47 2.84
  25  0.253  0.251  0.001-  35 2.82  50 2.82  59 2.82  42 2.84
  26  0.251  0.250  0.499-  34 2.82  51 2.82  58 2.82  43 2.84
  27  0.251  0.749  1.000-  37 2.82  61 2.82  52 2.82  44 2.84
  28  0.249  0.751  0.501-  45 2.82  36 2.83  53 2.83  60 2.83
  29  0.746  0.254  0.004-  46 2.79  39 2.93  54 2.93  63 2.93  33 2.94
  30  0.749  0.251  0.497-  55 2.82  38 2.82  62 2.82  47 2.84
  31  0.749  0.747  0.001-  65 2.82  56 2.82  41 2.82  48 2.84
  32  0.750  0.749  0.499-  57 2.82  64 2.82  40 2.82  49 2.84
  33  0.875  0.125  0.875-   1 2.94  10 2.94  22 2.94  29 2.94  35 3.37  39 3.37  54 3.37  55 3.37
                            63 3.37  65 3.37
  34  0.127  0.125  0.375-  17 2.82  26 2.82   2 2.82   9 2.82
  35  0.133  0.125  0.875-  18 2.82  25 2.82  10 2.93   1 2.93  33 3.37
  36  0.126  0.625  0.375-   4 2.82  11 2.82  19 2.83  28 2.83
  37  0.127  0.625  0.875-  20 2.82  27 2.82   3 2.82  12 2.82
  38  0.623  0.125  0.375-  13 2.82   6 2.82  21 2.82  30 2.82
  39  0.617  0.125  0.875-  14 2.82   5 2.82  22 2.93  29 2.93  33 3.37
  40  0.624  0.625  0.375-  23 2.82  32 2.82   8 2.83  15 2.83
  41  0.623  0.625  0.875-   7 2.82  16 2.82  31 2.82  24 2.82
  42  0.125  0.375  0.125-  19 2.82   9 2.84  25 2.84   3 2.84
  43  0.127  0.377  0.623-  10 2.79   4 2.84  26 2.84  20 2.84
  44  0.127  0.873  0.127-   1 2.79  11 2.84  17 2.84  27 2.84
  45  0.125  0.875  0.625-  28 2.82  18 2.84   2 2.84  12 2.84
  46  0.623  0.377  0.127-  29 2.79  13 2.84  23 2.84   7 2.84
  47  0.625  0.375  0.625-   8 2.82  14 2.84  24 2.84  30 2.84
  48  0.625  0.875  0.125-  15 2.82  21 2.84   5 2.84  31 2.84
  49  0.623  0.873  0.623-  22 2.79  32 2.84   6 2.84  16 2.84
  50  0.375  0.125  0.127-  17 2.82  13 2.82   5 2.82  25 2.82
  51  0.375  0.125  0.623-   6 2.82  26 2.82  18 2.82  14 2.82
  52  0.375  0.625  0.126-   7 2.82  27 2.82  19 2.83  15 2.83
  53  0.375  0.625  0.624-  16 2.82  20 2.82   8 2.83  28 2.83
  54  0.875  0.125  0.133-   9 2.82  21 2.82   1 2.93  29 2.93  33 3.37
  55  0.875  0.125  0.617-  30 2.82   2 2.82  22 2.93  10 2.93  33 3.37
  56  0.875  0.625  0.127-  11 2.82  23 2.82   3 2.82  31 2.82
  57  0.875  0.625  0.623-   4 2.82  32 2.82  12 2.82  24 2.82
  58  0.375  0.376  0.375-  26 2.82  13 2.82  19 2.83   8 2.83
  59  0.375  0.377  0.875-   7 2.82  20 2.82  14 2.82  25 2.82
  60  0.375  0.874  0.375-   6 2.82  17 2.82  15 2.83  28 2.83
  61  0.375  0.873  0.875-  16 2.82  27 2.82   5 2.82  18 2.82
  62  0.875  0.377  0.375-   4 2.82  23 2.82   9 2.82  30 2.82
  63  0.875  0.383  0.875-  24 2.82   3 2.82  10 2.93  29 2.93  33 3.37
  64  0.875  0.873  0.375-  11 2.82  32 2.82   2 2.82  21 2.82
  65  0.875  0.867  0.875-  12 2.82  31 2.82   1 2.93  22 2.93  33 3.37

  LATTYP: Found a simple cubic cell.
 ALAT       =    13.0867680000
  
  Lattice vectors:
  
 A1 = (  13.0867680000,   0.0000000000,   0.0000000000)
 A2 = (   0.0000000000,  13.0867680000,   0.0000000000)
 A3 = (   0.0000000000,   0.0000000000,  13.0867680000)


Analysis of symmetry for initial positions (statically):
=====================================================================
 Subroutine PRICEL returns:
 Original cell was already a primitive cell.
 

 Routine SETGRP: Setting up the symmetry group for a 
 simple cubic supercell.


 Subroutine GETGRP returns: Found 24 space group operations
 (whereof  6 operations were pure point group operations)
 out of a pool of 48 trial point group operations.


The static configuration has the point symmetry C_3v.
 The point group associated with its full space group is T_d .


Analysis of symmetry for dynamics (positions and initial velocities):
=====================================================================
 Subroutine PRICEL returns:
 Original cell was already a primitive cell.
 

 Routine SETGRP: Setting up the symmetry group for a 
 simple cubic supercell.


 Subroutine GETGRP returns: Found 24 space group operations
 (whereof  6 operations were pure point group operations)
 out of a pool of 48 trial point group operations.


The dynamic configuration has the point symmetry C_3v.
 The point group associated with its full space group is T_d .


Analysis of structural, dynamic, and magnetic symmetry:
=====================================================================
 Subroutine PRICEL returns:
 Original cell was already a primitive cell.
 

 Routine SETGRP: Setting up the symmetry group for a 
 simple cubic supercell.


 Subroutine GETGRP returns: Found 24 space group operations
 (whereof  6 operations were pure point group operations)
 out of a pool of 48 trial point group operations.


The overall configuration has the point symmetry C_3v.
 The point group associated with its full space group is T_d .


 Subroutine INISYM returns: Found 24 space group operations
 (whereof  6 operations are pure point group operations),
 and found     1 'primitive' translations


----------------------------------------------------------------------------------------

                                     Primitive cell                                     

  volume of cell :    2241.2856

  direct lattice vectors                    reciprocal lattice vectors
    13.086768000  0.000000000  0.000000000     0.076413061  0.000000000  0.000000000
     0.000000000 13.086768000  0.000000000     0.000000000  0.076413061  0.000000000
     0.000000000  0.000000000 13.086768000     0.000000000  0.000000000  0.076413061

  length of vectors
    13.086768000 13.086768000 13.086768000     0.076413061  0.076413061  0.076413061

  position of ions in fractional coordinates (direct lattice)
     0.004485000  0.995515000  0.004485000
     0.001247000  0.998753000  0.496959000
     0.001247000  0.503041000  0.001247000
     0.999625000  0.501218000  0.498782000
     0.496959000  0.998753000  0.001247000
     0.498781000  0.000375000  0.498781000
     0.498781000  0.501219000  0.999625000
     0.500528000  0.499472000  0.500528000
     0.001247000  0.251247000  0.253040000
     0.004486000  0.254485000  0.745515000
     0.999625000  0.748782000  0.251218000
     0.001247000  0.746959000  0.748753000
     0.498782000  0.249625000  0.251219000
     0.496960000  0.251247000  0.748753000
     0.500528000  0.750528000  0.249472000
     0.498781000  0.748781000  0.750375000
     0.251219000  0.000375000  0.251219000
     0.253040000  0.998753000  0.748753000
     0.249472000  0.499472000  0.249472000
     0.251219000  0.501219000  0.750375000
     0.748753000  0.998753000  0.253040000
     0.745514000  0.995515000  0.745515000
     0.750375000  0.501219000  0.251219000
     0.748753000  0.503040000  0.748753000
     0.253040000  0.251247000  0.001247000
     0.251219000  0.249625000  0.498781000
     0.251219000  0.748781000  0.999625000
     0.249472000  0.750528000  0.500528000
     0.745514000  0.254485000  0.004485000
     0.748753000  0.251247000  0.496960000
     0.748753000  0.746959000  0.001247000
     0.750375000  0.748782000  0.498782000
     0.875000000  0.125000000  0.875000000
     0.126656000  0.125000000  0.375000000
     0.132779000  0.125000000  0.875000000
     0.125892000  0.625000000  0.375000000
     0.126656000  0.625000000  0.875000000
     0.623344000  0.125000000  0.375000000
     0.617221000  0.125000000  0.875000000
     0.624108000  0.625000000  0.375000000
     0.623344000  0.625000000  0.875000000
     0.124848000  0.374848000  0.124848000
     0.127488000  0.377488000  0.622512000
     0.127488000  0.872512000  0.127488000
     0.124848000  0.875152000  0.625152000
     0.622512000  0.377488000  0.127488000
     0.625152000  0.374848000  0.625152000
     0.625152000  0.875152000  0.124848000
     0.622512000  0.872512000  0.622512000
     0.375000000  0.125000000  0.126656000
     0.375000000  0.125000000  0.623344000
     0.375000000  0.625000000  0.125892000
     0.375000000  0.625000000  0.624108000
     0.875000000  0.125000000  0.132779000
     0.875000000  0.125000000  0.617221000
     0.875000000  0.625000000  0.126656000
     0.875000000  0.625000000  0.623344000
     0.375000000  0.375892000  0.375000000
     0.375000000  0.376656000  0.875000000
     0.375000000  0.874108000  0.375000000
     0.375000000  0.873344000  0.875000000
     0.875000000  0.376656000  0.375000000
     0.875000000  0.382779000  0.875000000
     0.875000000  0.873344000  0.375000000
     0.875000000  0.867221000  0.875000000

  ion indices of the primitive-cell ions
   primitive index   ion index
                 1           1
                 2           2
                 3           3
                 4           4
                 5           5
                 6           6
                 7           7
                 8           8
                 9           9
                10          10
                11          11
                12          12
                13          13
                14          14
                15          15
                16          16
                17          17
                18          18
                19          19
                20          20
                21          21
                22          22
                23          23
                24          24
                25          25
                26          26
                27          27
                28          28
                29          29
                30          30
                31          31
                32          32
                33          33
                34          34
                35          35
                36          36
                37          37
                38          38
                39          39
                40          40
                41          41
                42          42
                43          43
                44          44
                45          45
                46          46
                47          47
                48          48
                49          49
                50          50
                51          51
                52          52
                53          53
                54          54
                55          55
                56          56
                57          57
                58          58
                59          59
                60          60
                61          61
                62          62
                63          63
                64          64
                65          65

----------------------------------------------------------------------------------------



 KPOINTS: 2x2x2 Gamma                             

Automatic generation of k-mesh.
 Grid dimensions read from file:
 generate k-points for:    2    2    2

 Generating k-lattice:

  Cartesian coordinates                     Fractional coordinates (reciprocal lattice)
     0.038206530  0.000000000  0.000000000     0.500000000  0.000000000  0.000000000
     0.000000000  0.038206530  0.000000000     0.000000000  0.500000000  0.000000000
     0.000000000  0.000000000  0.038206530     0.000000000  0.000000000  0.500000000

  Length of vectors
     0.038206530  0.038206530  0.038206530

  Shift w.r.t. Gamma in fractional coordinates (k-lattice)
     0.500000000  0.500000000  0.500000000

 
 Subroutine IBZKPT returns following result:
 ===========================================
 
 Found      2 irreducible k-points:
 
 Following reciprocal coordinates:
            Coordinates               Weight
  0.250000  0.250000  0.250000      4.000000
 -0.250000 -0.250000 -0.250000      4.000000
 
 Following cartesian coordinates:
            Coordinates               Weight
  0.019103  0.019103  0.019103      4.000000
 -0.019103 -0.019103 -0.019103      4.000000
 
 
 Subroutine IBZKPT_HF returns following result:
 ==============================================
 
 Found      8 k-points in 1st BZ
 the following      8 k-points will be used (e.g. in the exchange kernel)
 Following reciprocal coordinates:   # in IRBZ
  0.250000  0.250000  0.250000    0.12500000   1 t-inv F
 -0.250000 -0.250000 -0.250000    0.12500000   2 t-inv F
  0.250000 -0.250000 -0.250000    0.12500000   1 t-inv F
 -0.250000 -0.250000  0.250000    0.12500000   1 t-inv F
 -0.250000  0.250000 -0.250000    0.12500000   1 t-inv F
 -0.250000  0.250000  0.250000    0.12500000   2 t-inv F
  0.250000  0.250000 -0.250000    0.12500000   2 t-inv F
  0.250000 -0.250000  0.250000    0.12500000   2 t-inv F


--------------------------------------------------------------------------------------------------------




 Dimension of arrays:
   k-points           NKPTS =      2   k-points in BZ     NKDIM =      8   number of bands    NBANDS=    640
   number of dos      NEDOS =    301   number of ions     NIONS =     65
   non local maximal  LDIM  =      6   non local SUM 2l+1 LMDIM =     18
   total plane-waves  NPLWV = 884736
   max r-space proj   IRMAX =      1   max aug-charges    IRDMAX=  23156
   dimension x,y,z NGX =    96 NGY =   96 NGZ =   96
   dimension x,y,z NGXF=   192 NGYF=  192 NGZF=  192
   support grid    NGXF=   192 NGYF=  192 NGZF=  192
   ions per type =              33  32
   NGX,Y,Z   is equivalent  to a cutoff of  12.20, 12.20, 12.20 a.u.
   NGXF,Y,Z  is equivalent  to a cutoff of  24.39, 24.39, 24.39 a.u.

 SYSTEM =  CdTe                                    
 POSCAR =  Cd33 Te32                               

 Startparameter for this run:
   NWRITE =      2    write-flag & timer
   PREC   = accura    normal or accurate (medium, high low for compatibility)
   ISTART =      0    job   : 0-new  1-cont  2-samecut
   ICHARG =      2    charge: 1-file 2-atom 10-const
   ISPIN  =      1    spin polarized calculation?
   LNONCOLLINEAR =      T non collinear calculations
   LSORBIT =      F    spin-orbit coupling
   INIWAV =      1    electr: 0-lowe 1-rand  2-diag
   LASPH  =      T    aspherical Exc in radial PAW
 Electronic Relaxation 1
   ENCUT  =  450.0 eV  33.07 Ry    5.75 a.u.  22.64 22.64 22.64*2*pi/ulx,y,z
   ENINI  =  450.0     initial cutoff
   ENAUG  =  456.1 eV  augmentation charge cutoff
   NELM   =      7;   NELMIN=  2; NELMDL=  5     # of ELM steps 
   EDIFF  = 0.1E-03   stopping-criterion for ELM
   LREAL  =      F    real-space projection
   NLSPLINE    = F    spline interpolate recip. space projectors
   LCOMPAT=      F    compatible to vasp.4.4
   GGA_COMPAT  = T    GGA compatible to vasp.4.4-vasp.4.6
   LMAXPAW     = -100 max onsite density
   LMAXMIX     =    2 max onsite mixed and CHGCAR
   VOSKOWN=      0    Vosko Wilk Nusair interpolation
   ROPT   =    0.00000   0.00000
 Ionic relaxation
   EDIFFG = 0.1E-02   stopping-criterion for IOM
   NSW    =      0    number of steps for IOM
   NBLOCK =      1;   KBLOCK =      1    inner block; outer block 
   IBRION =     -1    ionic relax: 0-MD 1-quasi-New 2-CG
   NFREE  =      0    steps in history (QN), initial steepest desc. (CG)
   ISIF   =      2    stress and relaxation
   IWAVPR =     10    prediction:  0-non 1-charg 2-wave 3-comb
   ISYM   =      3    0-nonsym 1-usesym 2-fastsym
   LCORR  =      T    Harris-Foulkes like correction to forces

   POTIM  = 0.5000    time-step for ionic-motion
   TEIN   =    0.0    initial temperature
   TEBEG  =    0.0;   TEEND  =   0.0 temperature during run
   SMASS  =  -3.00    Nose mass-parameter (am)
   estimated Nose-frequenzy (Omega)   =  0.10E-29 period in steps = 0.13E+47 mass=  -0.391E-26a.u.
   SCALEE = 1.0000    scale energy and forces
   NPACO  =    256;   APACO  = 10.0  distance and # of slots for P.C.
   PSTRESS=    0.0 pullay stress

  Mass of Ions in am
   POMASS = 112.41127.60
  Ionic Valenz
   ZVAL   =  12.00  6.00
  Atomic Wigner-Seitz radii
   RWIGS  =  -1.00 -1.00
  virtual crystal weights 
   VCA    =   1.00  1.00
   NELECT =     588.0000    total number of electrons
   NUPDOWN=      -1.0000    fix difference up-down

 DOS related values:
   EMIN   =  10.00;   EMAX   =-10.00  energy-range for DOS
   EFERMI =   0.00;   METHOD = LEGACY      
   ISMEAR =     0;   SIGMA  =   0.05  broadening in eV -4-tet -1-fermi 0-gaus

 Electronic relaxation 2 (details)
   IALGO  =     58    algorithm
   LDIAG  =      T    sub-space diagonalisation (order eigenvalues)
   LSUBROT=      F    optimize rotation matrix (better conditioning)
   TURBO    =      0    0=normal 1=particle mesh
   IRESTART =      0    0=no restart 2=restart with 2 vectors
   NREBOOT  =      0    no. of reboots
   NMIN     =      0    reboot dimension
   EREF     =   0.00    reference energy to select bands
   IMIX   =      4    mixing-type and parameters
     AMIX     =   0.40;   BMIX     =  1.00
     AMIX_MAG =   1.60;   BMIX_MAG =  1.00
     AMIN     =   0.10
     WC   =   100.;   INIMIX=   1;  MIXPRE=   1;  MAXMIX= -45

 Intra band minimization:
   WEIMIN = 0.0000     energy-eigenvalue tresh-hold
   EBREAK =  0.39E-07  absolut break condition
   DEPER  =   0.30     relativ break condition  

   TIME   =   0.40     timestep for ELM

  volume/ion in A,a.u.               =      34.48       232.69
  Fermi-wavevector in a.u.,A,eV,Ry     =   1.048017  1.980464 14.943809  1.098339
  Thomas-Fermi vector in A             =   2.182921

 Write flags
   LWAVE        =      F    write WAVECAR
   LDOWNSAMPLE  =      F    k-point downsampling of WAVECAR
   LCHARG       =      F    write CHGCAR
   LVTOT        =      F    write LOCPOT, total local potential
   LVHAR        =      F    write LOCPOT, Hartree potential only
   LELF         =      F    write electronic localiz. function (ELF)
   LORBIT       =      0    0 simple, 1 ext, 2 COOP (PROOUT), +10 PAW based schemes


 Dipole corrections
   LMONO  =      F    monopole corrections only (constant potential shift)
   LDIPOL =      F    correct potential (dipole corrections)
   IDIPOL =      0    1-x, 2-y, 3-z, 4-all directions 
   EPSILON=  1.0000000 bulk dielectric constant

 Exchange correlation treatment:
   GGA     =    --    GGA type
   LEXCH   =     8    internal setting for exchange type
   LIBXC   =     F    Libxc                    
   VOSKOWN =     0    Vosko Wilk Nusair interpolation
   EXXOEP  =     0    0=HF, 1=EXX-LHF (local Hartree Fock) 2=EXX OEP
   LHFCALC =     T    Hartree Fock is set to
   LSYMGRAD=     F    symmetrize gradient (conserves proper symmetry)
   PRECFOCK=fast      Normal, Fast or Accurate (Low or Medium for compatibility)
   LRHFCALC=     F    long range Hartree Fock
   LRSCOR  =     F    long range correlation only (use DFT for short range part)
   LTHOMAS =     F    Thomas Fermi screening in HF
   LMODELHF=     F    short range full HF, long range fraction AEXX
   FOCKCORR=     1    mode to apply convergence corrections
   LFOCKACE=     T    use Adeptively-Compressed-Exchange operator
   ENCUT4O =  -1.0   cutoff for four orbital integrals eV
   LMAXFOCK=     4    L truncation for augmentation on plane wave grid
   LMAXFOCKAE=  -1    L truncation for all-electron charge restoration on plane wave grid
   NMAXFOCKAE=   1    number of basis functions for all-electron charge restoration
   LFOCKAEDFT=     F  apply the AE augmentation even for DFT
   NKREDX  =     1    reduce k-point grid by
   NKREDY  =     1    reduce k-point grid by
   NKREDZ  =     1    reduce k-point grid by
   SHIFTRED=     F    shift reduced grid of Gamma
   HFKIDENT=     F    idential grid for each k-point
   ODDONLY =     F    use only odd q-grid points
   EVENONLY=     F    use only even q-grid points
   HFALPHA =   -1.0000 decay constant for conv. correction
   MCALPHA =    0.0000 extent of test-charge in conv. correction in multipole expansion
   AEXX    =    0.2500 exact exchange contribution
   HFSCREEN=    0.2000 screening length (either q_TF or 0.3 A-1)
   HFSCREENC=   0.2000 screening length for correlation (either q_TF or 0.3 A-1)
   HFRCUT  =    0.0000 spherical cutoff for potential kernel
   ALDAX   =    0.7500 LDA exchange part
   AGGAX   =    0.7500 GGA exchange part
   ALDAC   =    1.0000 LDA correlation
   AGGAC   =    1.0000 GGA correlation
   ENCUTFOCK=  -1.0 apply spherical cutoff to Coloumb kernel
   NBANDSGWLOW=     1    first orbital included in HF term
   NBLOCK_FOCK=     8    blocking factor in FOCK_ACC

 Linear response parameters
   LEPSILON=     F    determine dielectric tensor
   LRPA    =     F    only Hartree local field effects (RPA)
   LNABLA  =     F    use nabla operator in PAW spheres
   LVEL    =     F    velocity operator in full k-point grid
   CSHIFT  =0.1000    complex shift for real part using Kramers Kronig
   OMEGAMAX=  -1.0    maximum frequency
   DEG_THRESHOLD= 0.2000000E-02 threshold for treating states as degnerate
   RTIME   =   -0.100 relaxation time in fs
  (WPLASMAI=    0.000 imaginary part of plasma frequency in eV, 0.658/RTIME)
   DFIELD  = 0.0000000 0.0000000 0.0000000 field for delta impulse in time

  Optional k-point grid parameters
   LKPOINTS_OPT  =     F    use optional k-point grid
   KPOINTS_OPT_MODE=     1    mode for optional k-point grid

 Orbital magnetization related:
   ORBITALMAG=     F  switch on orbital magnetization
   LCHIMAG   =     F  perturbation theory with respect to B field
   DQ        =  0.001000  dq finite difference perturbation B field
   LLRAUG    =     F  two centre corrections for induced B field
   LBONE     =     F  B-component reconstruction in AE one-centre
   LVGVCALC  =     T  calculate vGv susceptibility
   LVGVAPPL  =     F  apply vGv susceptibility instead of pGv for G=0

 Random number generation:
   RANDOM_GENERATOR = DEFAULT
   PCG_SEED         = not used


--------------------------------------------------------------------------------------------------------


 Static calculation
 charge density and potential will be updated during run
 non collinear spin polarized calculation
 Conjugate gradient for all bands (Freysoldt, et al. PRB 79, 241103 (2009))
 preconditioned conjugated gradient                                        
 perform sub-space diagonalisation
    before iterative eigenvector-optimisation
 modified Broyden-mixing scheme, WC =      100.0
 initial mixing is a Kerker type mixing with AMIX =  0.4000 and BMIX =      1.0000
 Hartree-type preconditioning will be used
 using additional bands          346
 reciprocal scheme for non local part
 use partial core corrections
 no Harris-corrections to forces 
 use gradient corrections 
 use of overlap-Matrix (Vanderbilt PP)
 Gauss-broadening in eV      SIGMA  =   0.05


--------------------------------------------------------------------------------------------------------


  energy-cutoff  :      450.00
  volume of cell :     2241.29
      direct lattice vectors                 reciprocal lattice vectors
    13.086768000  0.000000000  0.000000000     0.076413061  0.000000000  0.000000000
     0.000000000 13.086768000  0.000000000     0.000000000  0.076413061  0.000000000
     0.000000000  0.000000000 13.086768000     0.000000000  0.000000000  0.076413061

  length of vectors
    13.086768000 13.086768000 13.086768000     0.076413061  0.076413061  0.076413061



 k-points in units of 2pi/SCALE and weight: 2x2x2 Gamma                             
   0.01910327  0.01910327  0.01910327       0.500
  -0.01910327 -0.01910327 -0.01910327       0.500

 k-points in reciprocal lattice and weights: 2x2x2 Gamma                             
   0.25000000  0.25000000  0.25000000       0.500
  -0.25000000 -0.25000000 -0.25000000       0.500

 position of ions in fractional coordinates (direct lattice) 
   0.00448500  0.99551500  0.00448500
   0.00124700  0.99875300  0.49695900
   0.00124700  0.50304100  0.00124700
   0.99962500  0.50121800  0.49878200
   0.49695900  0.99875300  0.00124700
   0.49878100  0.00037500  0.49878100
   0.49878100  0.50121900  0.99962500
   0.50052800  0.49947200  0.50052800
   0.00124700  0.25124700  0.25304000
   0.00448600  0.25448500  0.74551500
   0.99962500  0.74878200  0.25121800
   0.00124700  0.74695900  0.74875300
   0.49878200  0.24962500  0.25121900
   0.49696000  0.25124700  0.74875300
   0.50052800  0.75052800  0.24947200
   0.49878100  0.74878100  0.75037500
   0.25121900  0.00037500  0.25121900
   0.25304000  0.99875300  0.74875300
   0.24947200  0.49947200  0.24947200
   0.25121900  0.50121900  0.75037500
   0.74875300  0.99875300  0.25304000
   0.74551400  0.99551500  0.74551500
   0.75037500  0.50121900  0.25121900
   0.74875300  0.50304000  0.74875300
   0.25304000  0.25124700  0.00124700
   0.25121900  0.24962500  0.49878100
   0.25121900  0.74878100  0.99962500
   0.24947200  0.75052800  0.50052800
   0.74551400  0.25448500  0.00448500
   0.74875300  0.25124700  0.49696000
   0.74875300  0.74695900  0.00124700
   0.75037500  0.74878200  0.49878200
   0.87500000  0.12500000  0.87500000
   0.12665600  0.12500000  0.37500000
   0.13277900  0.12500000  0.87500000
   0.12589200  0.62500000  0.37500000
   0.12665600  0.62500000  0.87500000
   0.62334400  0.12500000  0.37500000
   0.61722100  0.12500000  0.87500000
   0.62410800  0.62500000  0.37500000
   0.62334400  0.62500000  0.87500000
   0.12484800  0.37484800  0.12484800
   0.12748800  0.37748800  0.62251200
   0.12748800  0.87251200  0.12748800
   0.12484800  0.87515200  0.62515200
   0.62251200  0.37748800  0.12748800
   0.62515200  0.37484800  0.62515200
   0.62515200  0.87515200  0.12484800
   0.62251200  0.87251200  0.62251200
   0.37500000  0.12500000  0.12665600
   0.37500000  0.12500000  0.62334400
   0.37500000  0.62500000  0.12589200
   0.37500000  0.62500000  0.62410800
   0.87500000  0.12500000  0.13277900
   0.87500000  0.12500000  0.61722100
   0.87500000  0.62500000  0.12665600
   0.87500000  0.62500000  0.62334400
   0.37500000  0.37589200  0.37500000
   0.37500000  0.37665600  0.87500000
   0.37500000  0.87410800  0.37500000
   0.37500000  0.87334400  0.87500000
   0.87500000  0.37665600  0.37500000
   0.87500000  0.38277900  0.87500000
   0.87500000  0.87334400  0.37500000
   0.87500000  0.86722100  0.87500000

 position of ions in cartesian coordinates  (Angst):
   0.05869415 13.02807385  0.05869415
   0.01631920 13.07044880  6.50358714
   0.01631920  6.58318086  0.01631920
  13.08186046  6.55932368  6.52744432
   6.50358714 13.07044880  0.01631920
   6.52743123  0.00490754  6.52743123
   6.52743123  6.55933677 13.08186046
   6.55029381  6.53647419  6.55029381
   0.01631920  3.28801120  3.31147577
   0.05870724  3.33038615  9.75638185
  13.08186046  9.79913632  3.28763168
   0.01631920  9.77527914  9.79875680
   6.52744432  3.26678446  3.28764477
   6.50360023  3.28801120  9.79875680
   6.55029381  9.82198581  3.26478219
   6.52743123  9.79912323  9.81998354
   3.28764477  0.00490754  3.28764477
   3.31147577 13.07044880  9.79875680
   3.26478219  6.53647419  3.26478219
   3.28764477  6.55933677  9.81998354
   9.79875680 13.07044880  3.31147577
   9.75636876 13.02807385  9.75638185
   9.81998354  6.55933677  3.28764477
   9.79875680  6.58316777  9.79875680
   3.31147577  3.28801120  0.01631920
   3.28764477  3.26678446  6.52743123
   3.28764477  9.79912323 13.08186046
   3.26478219  9.82198581  6.55029381
   9.75636876  3.33038615  0.05869415
   9.79875680  3.28801120  6.50360023
   9.79875680  9.77527914  0.01631920
   9.81998354  9.79913632  6.52744432
  11.45092200  1.63584600 11.45092200
   1.65751769  1.63584600  4.90753800
   1.73764797  1.63584600 11.45092200
   1.64751940  8.17923000  4.90753800
   1.65751769  8.17923000 11.45092200
   8.15755831  1.63584600  4.90753800
   8.07742803  1.63584600 11.45092200
   8.16755660  8.17923000  4.90753800
   8.15755831  8.17923000 11.45092200
   1.63385681  4.90554881  1.63385681
   1.66840588  4.94009788  8.14667012
   1.66840588 11.41836212  1.66840588
   1.63385681 11.45291119  8.18121919
   8.14667012  4.94009788  1.66840588
   8.18121919  4.90554881  8.18121919
   8.18121919 11.45291119  1.63385681
   8.14667012 11.41836212  8.14667012
   4.90753800  1.63584600  1.65751769
   4.90753800  1.63584600  8.15755831
   4.90753800  8.17923000  1.64751940
   4.90753800  8.17923000  8.16755660
  11.45092200  1.63584600  1.73764797
  11.45092200  1.63584600  8.07742803
  11.45092200  8.17923000  1.65751769
  11.45092200  8.17923000  8.15755831
   4.90753800  4.91921140  4.90753800
   4.90753800  4.92920969 11.45092200
   4.90753800 11.43924860  4.90753800
   4.90753800 11.42925031 11.45092200
  11.45092200  4.92920969  4.90753800
  11.45092200  5.00933997 11.45092200
  11.45092200 11.42925031  4.90753800
  11.45092200 11.34912003 11.45092200

 Euler angles ALPHA=     0.0000000  BETA=     0.0000000

 transformation matrix from SAXIS to cartesian coordinates
 ---------------------------------------------------------
     1.0000000 m_x    -0.0000000 m_y     0.0000000 m_z
     0.0000000 m_x     1.0000000 m_y     0.0000000 m_z
    -0.0000000 m_x     0.0000000 m_y     1.0000000 m_z

 transformation matrix from cartesian coordinates to SAXIS
 ---------------------------------------------------------
     1.0000000 m_x     0.0000000 m_y    -0.0000000 m_z
    -0.0000000 m_x     1.0000000 m_y     0.0000000 m_z
     0.0000000 m_x     0.0000000 m_y     1.0000000 m_z




--------------------------------------------------------------------------------------------------------


 k-point   1 :   0.2500 0.2500 0.2500  plane waves:   97156
 k-point   2 :  -0.2500-0.2500-0.2500  plane waves:   97156

 maximum and minimum number of plane-waves per node :      3094     2978

 maximum number of plane-waves:     97156
 maximum index in each direction: 
   IXMAX=   22   IYMAX=   22   IZMAX=   22
   IXMIN=  -22   IYMIN=  -22   IZMIN=  -22


 parallel 3D FFT for wavefunctions:
    minimum data exchange during FFTs selected (reduces bandwidth)
 parallel 3D FFT for charge:
    minimum data exchange during FFTs selected (reduces bandwidth)


 FFT grid for exact exchange (Hartree Fock) 
  NGX = 48; NGY = 48; NGZ = 48


 Radii for the augmentation spheres in the non-local exchange
 for species   1 augmentation radius   1.444 (default was   1.070)
       energy cutoff for augmentation   1800.0
 for species   2 augmentation radius   1.606 (default was   1.190)
       energy cutoff for augmentation   1800.0

 real space projection operators:
  total allocation   :       9375.20 KBytes
  max/ min on nodes  :        432.62        141.21

 Maximum index for augmentation-charges in exchange           97
  SETUP_FOCK is finished

 total amount of memory used by VASP MPI-rank0    52849. kBytes
=======================================================================

   base      :      30000. kBytes
   nonl-proj :       2689. kBytes
   fftplans  :       4316. kBytes
   grid      :      12386. kBytes
   one-center:        186. kBytes
   HF        :        129. kBytes
   nonlr-proj:       1424. kBytes
   wavefun   :       1719. kBytes

     INWAV:  cpu time      0.0000: real time      0.0000
 Broyden mixing: mesh for mixing (old mesh)
   NGX = 45   NGY = 45   NGZ = 45
  (NGX  =192   NGY  =192   NGZ  =192)
  gives a total of  91125 points

 initial charge density was supplied:
 charge density of overlapping atoms calculated
 number of electron     588.0000000 magnetization       0.0000000      0.0000000      0.0000000
 keeping initial charge density in first step


--------------------------------------------------------------------------------------------------------


 Maximum index for augmentation-charges          775 (set IRDMAX)


--------------------------------------------------------------------------------------------------------


 First call to EWALD:  gamma=   0.135
 Maximum number of real-space cells 3x 3x 3
 Maximum number of reciprocal cells 3x 3x 3

    FEWALD:  cpu time      0.0055: real time      0.0055


--------------------------------------- Ionic step        1  -------------------------------------------




--------------------------------------- Iteration      1(   1)  ---------------------------------------


    POTLOK:  cpu time      2.2941: real time      2.2972
    SETDIJ:  cpu time      0.4822: real time      0.4822
    TRIAL :  cpu time    321.8155: real time    321.9482
    CORREC:  cpu time      0.0035: real time      0.0035
    --------------------------------------------
      LOOP:  cpu time    324.6127: real time    324.7485

 eigenvalue-minimisations  :  2560
 total energy-change (2. order) :-0.6563282E+05  (-0.2612724E+05)
 number of electron     588.0000000 magnetization       0.0000000      0.0000000      0.0000000
 augmentation part      588.0000000 magnetization       0.0000000      0.0000000      0.0000000

 Free energy of the ion-electron system (eV)
  ---------------------------------------------------
  alpha Z        PSCENC =      1642.45118531
  Ewald energy   TEWEN  =    -33940.17512420
  -Hartree energ DENC   =    -17077.89199325
  -exchange      EXHF   =         0.00000000
  -V(xc)+E(xc)   XCENC  =      -720.79451392
  PAW double counting   =     46138.45347506  -111612.37425480
  entropy T*S    EENTRO =        -0.01735328
  eigenvalues    EBANDS =       188.09992177
  atomic energy  EATOM  =     49749.42546354
  ---------------------------------------------------
  free energy    TOTEN  =    -65632.82319376 eV

  energy without entropy =   -65632.80584049  energy(sigma->0) =   -65632.81451712
  exchange ACFDT corr.  =         0.00000000  see jH, gK, PRB 81, 115126


--------------------------------------------------------------------------------------------------------




--------------------------------------- Iteration      1(   2)  ---------------------------------------


    TRIAL :  cpu time      3.8359: real time      3.8379
    CORREC:  cpu time      0.0014: real time      0.0014
    --------------------------------------------
      LOOP:  cpu time      3.8604: real time      3.8893

 eigenvalue-minimisations  :  2944
 total energy-change (2. order) :-0.3637481E+04  (-0.3621561E+04)
 number of electron     588.0000000 magnetization       0.0000000      0.0000000      0.0000000
 augmentation part      588.0000000 magnetization       0.0000000      0.0000000      0.0000000

 Free energy of the ion-electron system (eV)
  ---------------------------------------------------
  alpha Z        PSCENC =      1642.45118531
  Ewald energy   TEWEN  =    -33940.17512420
  -Hartree energ DENC   =    -17077.89199325
  -exchange      EXHF   =         0.00000000
  -V(xc)+E(xc)   XCENC  =      -720.79451392
  PAW double counting   =     46138.45347506  -111612.37425480
  entropy T*S    EENTRO =        -0.00548665
  eigenvalues    EBANDS =     -3449.39252449
  atomic energy  EATOM  =     49749.42546354
  ---------------------------------------------------
  free energy    TOTEN  =    -69270.30377339 eV

  energy without entropy =   -69270.29828674  energy(sigma->0) =   -69270.30103007
  exchange ACFDT corr.  =         0.00000000  see jH, gK, PRB 81, 115126


--------------------------------------------------------------------------------------------------------




--------------------------------------- Iteration      1(   3)  ---------------------------------------


    TRIAL :  cpu time      3.8094: real time      3.8112
    CORREC:  cpu time      0.0005: real time      0.0005
    --------------------------------------------
      LOOP:  cpu time      3.8298: real time      3.8632

 eigenvalue-minimisations  :  2944
 total energy-change (2. order) :-0.2037107E+03  (-0.2034660E+03)
 number of electron     588.0000000 magnetization       0.0000000      0.0000000      0.0000000
 augmentation part      588.0000000 magnetization       0.0000000      0.0000000      0.0000000

 Free energy of the ion-electron system (eV)
  ---------------------------------------------------
  alpha Z        PSCENC =      1642.45118531
  Ewald energy   TEWEN  =    -33940.17512420
  -Hartree energ DENC   =    -17077.89199325
  -exchange      EXHF   =         0.00000000
  -V(xc)+E(xc)   XCENC  =      -720.79451392
  PAW double counting   =     46138.45347506  -111612.37425480
  entropy T*S    EENTRO =        -0.00000000
  eigenvalues    EBANDS =     -3653.10869929
  atomic energy  EATOM  =     49749.42546354
  ---------------------------------------------------
  free energy    TOTEN  =    -69474.01446154 eV

  energy without entropy =   -69474.01446154  energy(sigma->0) =   -69474.01446154
  exchange ACFDT corr.  =         0.00000000  see jH, gK, PRB 81, 115126


--------------------------------------------------------------------------------------------------------




--------------------------------------- Iteration      1(   4)  ---------------------------------------


    TRIAL :  cpu time      5.4523: real time      5.4545
    CORREC:  cpu time      0.0005: real time      0.0005
    --------------------------------------------
      LOOP:  cpu time      5.4812: real time      5.5129

 eigenvalue-minimisations  :  3712
 total energy-change (2. order) :-0.5547367E+01  (-0.5545588E+01)
 number of electron     588.0000000 magnetization       0.0000000      0.0000000      0.0000000
 augmentation part      588.0000000 magnetization       0.0000000      0.0000000      0.0000000

 Free energy of the ion-electron system (eV)
  ---------------------------------------------------
  alpha Z        PSCENC =      1642.45118531
  Ewald energy   TEWEN  =    -33940.17512420
  -Hartree energ DENC   =    -17077.89199325
  -exchange      EXHF   =         0.00000000
  -V(xc)+E(xc)   XCENC  =      -720.79451392
  PAW double counting   =     46138.45347506  -111612.37425480
  entropy T*S    EENTRO =        -0.00000000
  eigenvalues    EBANDS =     -3658.65606610
  atomic energy  EATOM  =     49749.42546354
  ---------------------------------------------------
  free energy    TOTEN  =    -69479.56182835 eV

  energy without entropy =   -69479.56182835  energy(sigma->0) =   -69479.56182835
  exchange ACFDT corr.  =         0.00000000  see jH, gK, PRB 81, 115126


--------------------------------------------------------------------------------------------------------




--------------------------------------- Iteration      1(   5)  ---------------------------------------


    POTLOK:  cpu time      1.9144: real time      1.9152
    SETDIJ:  cpu time      1.5167: real time      1.5174
 -----------------------------------------------------------------------------
|                                                                             |
|     EEEEEEE  RRRRRR   RRRRRR   OOOOOOO  RRRRRR      ###     ###     ###     |
|     E        R     R  R     R  O     O  R     R     ###     ###     ###     |
|     E        R     R  R     R  O     O  R     R     ###     ###     ###     |
|     EEEEE    RRRRRR   RRRRRR   O     O  RRRRRR       #       #       #      |
|     E        R   R    R   R    O     O  R   R                               |
|     E        R    R   R    R   O     O  R    R      ###     ###     ###     |
|     EEEEEEE  R     R  R     R  OOOOOOO  R     R     ###     ###     ###     |
|                                                                             |
|     Error EDDDAV: Call to ZHEGV failed. Returncode = 127 1 128              |
|                                                                             |
|       ---->  I REFUSE TO CONTINUE WITH THIS SICK JOB ... BYE!!! <----       |
|                                                                             |
 -----------------------------------------------------------------------------

++++ Slurm JobID = 5424414

Lmod is automatically replacing "cce/15.0.0" with "gcc/11.2.0".


Lmod is automatically replacing "PrgEnv-cray/8.3.3" with "PrgEnv-gnu/8.3.3".


Due to MODULEPATH changes, the following have been reloaded:
  1) cray-mpich/8.1.23

	linux-vdso.so.1 (0x00007ffeecff0000)
	libstdc++.so.6 => /opt/cray/pe/gcc-libs/libstdc++.so.6 (0x000015444756c000)
	libhdf5_fortran_parallel_gnu_91.so.200 => /opt/cray/pe/hdf5-parallel/1.12.2.1/gnu/9.1/lib/libhdf5_fortran_parallel_gnu_91.so.200 (0x0000154447319000)
	libdl.so.2 => /lib64/libdl.so.2 (0x0000154447115000)
	libmpifort_gnu_91.so.12 => /opt/cray/pe/mpich/8.1.23/ofi/gnu/9.1/lib/libmpifort_gnu_91.so.12 (0x0000154446e91000)
	libfftw3_omp.so.mpi31.3 => /opt/cray/pe/fftw/3.3.10.3/x86_rome/lib/libfftw3_omp.so.mpi31.3 (0x0000154446c8a000)
	libsci_gnu_82_mpi_mp.so.5 => /opt/cray/pe/libsci/22.12.1.1/GNU/9.1/x86_64/lib/libsci_gnu_82_mpi_mp.so.5 (0x000015444650b000)
	libsci_gnu_82_mp.so.5 => /opt/cray/pe/libsci/22.12.1.1/GNU/9.1/x86_64/lib/libsci_gnu_82_mp.so.5 (0x0000154442d97000)
	libxpmem.so.0 => /opt/cray/xpmem/default/lib64/libxpmem.so.0 (0x0000154447b8b000)
	libgfortran.so.5 => /opt/cray/pe/gcc-libs/libgfortran.so.5 (0x00001544428eb000)
	libquadmath.so.0 => /opt/cray/pe/gcc-libs/libquadmath.so.0 (0x00001544426a4000)
	libpthread.so.0 => /lib64/libpthread.so.0 (0x0000154442481000)
	libm.so.6 => /lib64/libm.so.6 (0x0000154442136000)
	libmvec.so.1 => /lib64/libmvec.so.1 (0x0000154441f0b000)
	libgomp.so.1 => /opt/cray/pe/gcc-libs/libgomp.so.1 (0x0000154441cc8000)
	libgcc_s.so.1 => /opt/cray/pe/gcc-libs/libgcc_s.so.1 (0x0000154441aaf000)
	libc.so.6 => /lib64/libc.so.6 (0x00001544416ba000)
	/lib64/ld-linux-x86-64.so.2 (0x000015444797e000)
	libhdf5_parallel_gnu_91.so.200 => /opt/cray/pe/hdf5-parallel/1.12.2.1/gnu/9.1/lib/libhdf5_parallel_gnu_91.so.200 (0x000015444103d000)
	libmpi_gnu_91.so.12 => /opt/cray/pe/mpich/8.1.23/ofi/gnu/9.1/lib/libmpi_gnu_91.so.12 (0x000015443e4b8000)
	libfabric.so.1 => /opt/cray/libfabric/1.12.1.2.2.0.0/lib64/libfabric.so.1 (0x000015443e208000)
	libatomic.so.1 => /opt/cray/pe/gcc-libs/libatomic.so.1 (0x000015443e000000)
	librt.so.1 => /lib64/librt.so.1 (0x000015443ddf7000)
	libpmi.so.0 => /opt/cray/pe/lib64/libpmi.so.0 (0x000015443dbf5000)
	libpmi2.so.0 => /opt/cray/pe/lib64/libpmi2.so.0 (0x000015443d9bc000)
	libfftw3.so.mpi31.3 => /opt/cray/pe/fftw/3.3.10.3/x86_rome/lib/libfftw3.so.mpi31.3 (0x000015443d4b7000)
	libz.so.1 => /lib64/libz.so.1 (0x000015443d2a0000)
	librdmacm.so.1 => /usr/lib64/librdmacm.so.1 (0x000015443d080000)
	libibverbs.so.1 => /usr/lib64/libibverbs.so.1 (0x000015443ce60000)
	libpals.so.0 => /opt/cray/pe/lib64/libpals.so.0 (0x000015443cc5b000)
	libnl-3.so.200 => /usr/lib64/libnl-3.so.200 (0x000015443ca39000)
	libnl-route-3.so.200 => /usr/lib64/libnl-route-3.so.200 (0x000015443c7c3000)
rm: cannot remove 'WAVECAR': No such file or directory
 running 8192 mpi-ranks, with    1 threads/rank, on   64 nodes
 distrk:  each k-point on 4096 cores,    2 groups
 distr:  one band on   32 cores,  128 groups
 vasp.6.4.1 05Apr23 (build May 30 2023 08:55:05) complex                         
 POSCAR found type information on POSCAR CdTe
 POSCAR found :  2 types and      65 ions
 Reading from existing POTCAR
 scaLAPACK will be used
 Reading from existing POTCAR
 -----------------------------------------------------------------------------
|                                                                             |
|               ----> ADVICE to this user running VASP <----                  |
|                                                                             |
|     You have a (more or less) 'large supercell' and for larger cells it     |
|     might be more efficient to use real-space projection operators.         |
|     Therefore, try LREAL= Auto in the INCAR file.                           |
|     Mind: For very accurate calculation, you might also keep the            |
|     reciprocal projection scheme (i.e. LREAL=.FALSE.).                      |
|                                                                             |
 -----------------------------------------------------------------------------

 LDA part: xc-table for Pade appr. of Perdew
 POSCAR, INCAR and KPOINTS ok, starting setup
 FFT: planning ... GRIDC
 FFT: planning ... GRID_SOFT
 FFT: planning ... GRID
 WAVECAR not read
 entering main loop
       N       E                     dE             d eps       ncg     rms          ort
DAV:   1    -0.656328231938E+05   -0.65633E+05   -0.26127E+05  1280   0.146E+03
DAV:   2    -0.692703037734E+05   -0.36375E+04   -0.36216E+04  1280   0.350E+02
DAV:   3    -0.694740144615E+05   -0.20371E+03   -0.20347E+03  1280   0.801E+01
DAV:   4    -0.694795618284E+05   -0.55474E+01   -0.55456E+01  1280   0.114E+01
 -----------------------------------------------------------------------------
|                                                                             |
|     EEEEEEE  RRRRRR   RRRRRR   OOOOOOO  RRRRRR      ###     ###     ###     |
|     E        R     R  R     R  O     O  R     R     ###     ###     ###     |
|     E        R     R  R     R  O     O  R     R     ###     ###     ###     |
|     EEEEE    RRRRRR   RRRRRR   O     O  RRRRRR       #       #       #      |
|     E        R   R    R   R    O     O  R   R                               |
|     E        R    R   R    R   O     O  R    R      ###     ###     ###     |
|     EEEEEEE  R     R  R     R  OOOOOOO  R     R     ###     ###     ###     |
|                                                                             |
|     Error EDDDAV: Call to ZHEGV failed. Returncode = 127 1 128              |
|                                                                             |
|       ---->  I REFUSE TO CONTINUE WITH THIS SICK JOB ... BYE!!! <----       |
|                                                                             |
 -----------------------------------------------------------------------------

MPICH ERROR [Rank 6994] [job id 5424414.0] [Sat Feb  3 13:46:44 2024] [nid004011] - Abort(1) (rank 6994 in comm 0): application called MPI_Abort(MPI_COMM_WORLD, 1) - process 6994

aborting job:
application called MPI_Abort(MPI_COMM_WORLD, 1) - process 6994
MPICH ERROR [Rank 7038] [job id 5424414.0] [Sat Feb  3 13:46:44 2024] [nid004011] - Abort(1) (rank 7038 in comm 0): application called MPI_Abort(MPI_COMM_WORLD, 1) - process 7038

aborting job:
application called MPI_Abort(MPI_COMM_WORLD, 1) - process 7038
MPICH ERROR [Rank 6430] [job id 5424414.0] [Sat Feb  3 13:46:44 2024] [nid004007] - Abort(1) (rank 6430 in comm 0): application called MPI_Abort(MPI_COMM_WORLD, 1) - process 6430

aborting job:
application called MPI_Abort(MPI_COMM_WORLD, 1) - process 6430
MPICH ERROR [Rank 7556] [job id 5424414.0] [Sat Feb  3 13:46:44 2024] [nid006788] - Abort(1) (rank 7556 in comm 0): application called MPI_Abort(MPI_COMM_WORLD, 1) - process 7556

aborting job:
application called MPI_Abort(MPI_COMM_WORLD, 1) - process 7556
MPICH ERROR [Rank 1490] [job id 5424414.0] [Sat Feb  3 13:46:44 2024] [nid001012] - Abort(1) (rank 1490 in comm 0): application called MPI_Abort(MPI_COMM_WORLD, 1) - process 1490

aborting job:
application called MPI_Abort(MPI_COMM_WORLD, 1) - process 1490
MPICH ERROR [Rank 6482] [job id 5424414.0] [Sat Feb  3 13:46:44 2024] [nid004007] - Abort(1) (rank 6482 in comm 0): application called MPI_Abort(MPI_COMM_WORLD, 1) - process 6482

aborting job:
application called MPI_Abort(MPI_COMM_WORLD, 1) - process 6482
MPICH ERROR [Rank 6949] [job id 5424414.0] [Sat Feb  3 13:46:44 2024] [nid004011] - Abort(1) (rank 6949 in comm 0): application called MPI_Abort(MPI_COMM_WORLD, 1) - process 6949

aborting job:
application called MPI_Abort(MPI_COMM_WORLD, 1) - process 6949
MPICH ERROR [Rank 7582] [job id 5424414.0] [Sat Feb  3 13:46:44 2024] [nid006788] - Abort(1) (rank 7582 in comm 0): application called MPI_Abort(MPI_COMM_WORLD, 1) - process 7582

aborting job:
application called MPI_Abort(MPI_COMM_WORLD, 1) - process 7582
MPICH ERROR [Rank 1522] [job id 5424414.0] [Sat Feb  3 13:46:44 2024] [nid001012] - Abort(1) (rank 1522 in comm 0): application called MPI_Abort(MPI_COMM_WORLD, 1) - process 1522

aborting job:
application called MPI_Abort(MPI_COMM_WORLD, 1) - process 1522
MPICH ERROR [Rank 4517] [job id 5424414.0] [Sat Feb  3 13:46:44 2024] [nid001036] - Abort(1) (rank 4517 in comm 0): application called MPI_Abort(MPI_COMM_WORLD, 1) - process 4517

aborting job:
application called MPI_Abort(MPI_COMM_WORLD, 1) - process 4517
MPICH ERROR [Rank 6494] [job id 5424414.0] [Sat Feb  3 13:46:44 2024] [nid004007] - Abort(1) (rank 6494 in comm 0): application called MPI_Abort(MPI_COMM_WORLD, 1) - process 6494

aborting job:
application called MPI_Abort(MPI_COMM_WORLD, 1) - process 6494
MPICH ERROR [Rank 4273] [job id 5424414.0] [Sat Feb  3 13:46:44 2024] [nid001034] - Abort(1) (rank 4273 in comm 0): application called MPI_Abort(MPI_COMM_WORLD, 1) - process 4273

aborting job:
application called MPI_Abort(MPI_COMM_WORLD, 1) - process 4273
MPICH ERROR [Rank 7570] [job id 5424414.0] [Sat Feb  3 13:46:44 2024] [nid006788] - Abort(1) (rank 7570 in comm 0): application called MPI_Abort(MPI_COMM_WORLD, 1) - process 7570

aborting job:
application called MPI_Abort(MPI_COMM_WORLD, 1) - process 7570
MPICH ERROR [Rank 1534] [job id 5424414.0] [Sat Feb  3 13:46:44 2024] [nid001012] - Abort(1) (rank 1534 in comm 0): application called MPI_Abort(MPI_COMM_WORLD, 1) - process 1534

aborting job:
application called MPI_Abort(MPI_COMM_WORLD, 1) - process 1534
MPICH ERROR [Rank 6411] [job id 5424414.0] [Sat Feb  3 13:46:44 2024] [nid004007] - Abort(1) (rank 6411 in comm 0): application called MPI_Abort(MPI_COMM_WORLD, 1) - process 6411

aborting job:
application called MPI_Abort(MPI_COMM_WORLD, 1) - process 6411
MPICH ERROR [Rank 4274] [job id 5424414.0] [Sat Feb  3 13:46:44 2024] [nid001034] - Abort(1) (rank 4274 in comm 0): application called MPI_Abort(MPI_COMM_WORLD, 1) - process 4274

aborting job:
application called MPI_Abort(MPI_COMM_WORLD, 1) - process 4274
MPICH ERROR [Rank 6972] [job id 5424414.0] [Sat Feb  3 13:46:44 2024] [nid004011] - Abort(1) (rank 6972 in comm 0): application called MPI_Abort(MPI_COMM_WORLD, 1) - process 6972

aborting job:
application called MPI_Abort(MPI_COMM_WORLD, 1) - process 6972
MPICH ERROR [Rank 1535] [job id 5424414.0] [Sat Feb  3 13:46:44 2024] [nid001012] - Abort(1) (rank 1535 in comm 0): application called MPI_Abort(MPI_COMM_WORLD, 1) - process 1535

aborting job:
application called MPI_Abort(MPI_COMM_WORLD, 1) - process 1535
MPICH ERROR [Rank 6452] [job id 5424414.0] [Sat Feb  3 13:46:44 2024] [nid004007] - Abort(1) (rank 6452 in comm 0): application called MPI_Abort(MPI_COMM_WORLD, 1) - process 6452

aborting job:
application called MPI_Abort(MPI_COMM_WORLD, 1) - process 6452
MPICH ERROR [Rank 6991] [job id 5424414.0] [Sat Feb  3 13:46:44 2024] [nid004011] - Abort(1) (rank 6991 in comm 0): application called MPI_Abort(MPI_COMM_WORLD, 1) - process 6991

aborting job:
application called MPI_Abort(MPI_COMM_WORLD, 1) - process 6991
MPICH ERROR [Rank 7587] [job id 5424414.0] [Sat Feb  3 13:46:44 2024] [nid006788] - Abort(1) (rank 7587 in comm 0): application called MPI_Abort(MPI_COMM_WORLD, 1) - process 7587

aborting job:
application called MPI_Abort(MPI_COMM_WORLD, 1) - process 7587
MPICH ERROR [Rank 7424] [job id 5424414.0] [Sat Feb  3 13:46:44 2024] [nid006773] - Abort(1) (rank 7424 in comm 0): application called MPI_Abort(MPI_COMM_WORLD, 1) - process 7424

aborting job:
application called MPI_Abort(MPI_COMM_WORLD, 1) - process 7424
MPICH ERROR [Rank 1419] [job id 5424414.0] [Sat Feb  3 13:46:44 2024] [nid001012] - Abort(1) (rank 1419 in comm 0): application called MPI_Abort(MPI_COMM_WORLD, 1) - process 1419

aborting job:
application called MPI_Abort(MPI_COMM_WORLD, 1) - process 1419
MPICH ERROR [Rank 4276] [job id 5424414.0] [Sat Feb  3 13:46:44 2024] [nid001034] - Abort(1) (rank 4276 in comm 0): application called MPI_Abort(MPI_COMM_WORLD, 1) - process 4276

aborting job:
application called MPI_Abort(MPI_COMM_WORLD, 1) - process 4276
MPICH ERROR [Rank 6921] [job id 5424414.0] [Sat Feb  3 13:46:44 2024] [nid004011] - Abort(1) (rank 6921 in comm 0): application called MPI_Abort(MPI_COMM_WORLD, 1) - process 6921

aborting job:
application called MPI_Abort(MPI_COMM_WORLD, 1) - process 6921
MPICH ERROR [Rank 7602] [job id 5424414.0] [Sat Feb  3 13:46:44 2024] [nid006788] - Abort(1) (rank 7602 in comm 0): application called MPI_Abort(MPI_COMM_WORLD, 1) - process 7602

aborting job:
application called MPI_Abort(MPI_COMM_WORLD, 1) - process 7602
MPICH ERROR [Rank 1426] [job id 5424414.0] [Sat Feb  3 13:46:44 2024] [nid001012] - Abort(1) (rank 1426 in comm 0): application called MPI_Abort(MPI_COMM_WORLD, 1) - process 1426

aborting job:
application called MPI_Abort(MPI_COMM_WORLD, 1) - process 1426
MPICH ERROR [Rank 4286] [job id 5424414.0] [Sat Feb  3 13:46:44 2024] [nid001034] - Abort(1) (rank 4286 in comm 0): application called MPI_Abort(MPI_COMM_WORLD, 1) - process 4286

aborting job:
application called MPI_Abort(MPI_COMM_WORLD, 1) - process 4286
MPICH ERROR [Rank 6926] [job id 5424414.0] [Sat Feb  3 13:46:44 2024] [nid004011] - Abort(1) (rank 6926 in comm 0): application called MPI_Abort(MPI_COMM_WORLD, 1) - process 6926

aborting job:
application called MPI_Abort(MPI_COMM_WORLD, 1) - process 6926
MPICH ERROR [Rank 7579] [job id 5424414.0] [Sat Feb  3 13:46:44 2024] [nid006788] - Abort(1) (rank 7579 in comm 0): application called MPI_Abort(MPI_COMM_WORLD, 1) - process 7579

aborting job:
application called MPI_Abort(MPI_COMM_WORLD, 1) - process 7579
MPICH ERROR [Rank 1455] [job id 5424414.0] [Sat Feb  3 13:46:44 2024] [nid001012] - Abort(1) (rank 1455 in comm 0): application called MPI_Abort(MPI_COMM_WORLD, 1) - process 1455

aborting job:
application called MPI_Abort(MPI_COMM_WORLD, 1) - process 1455
MPICH ERROR [Rank 4529] [job id 5424414.0] [Sat Feb  3 13:46:44 2024] [nid001036] - Abort(1) (rank 4529 in comm 0): application called MPI_Abort(MPI_COMM_WORLD, 1) - process 4529

aborting job:
application called MPI_Abort(MPI_COMM_WORLD, 1) - process 4529
MPICH ERROR [Rank 5963] [job id 5424414.0] [Sat Feb  3 13:46:44 2024] [nid004001] - Abort(1) (rank 5963 in comm 0): application called MPI_Abort(MPI_COMM_WORLD, 1) - process 5963

aborting job:
application called MPI_Abort(MPI_COMM_WORLD, 1) - process 5963
MPICH ERROR [Rank 4319] [job id 5424414.0] [Sat Feb  3 13:46:44 2024] [nid001034] - Abort(1) (rank 4319 in comm 0): application called MPI_Abort(MPI_COMM_WORLD, 1) - process 4319

aborting job:
application called MPI_Abort(MPI_COMM_WORLD, 1) - process 4319
MPICH ERROR [Rank 6930] [job id 5424414.0] [Sat Feb  3 13:46:44 2024] [nid004011] - Abort(1) (rank 6930 in comm 0): application called MPI_Abort(MPI_COMM_WORLD, 1) - process 6930

aborting job:
application called MPI_Abort(MPI_COMM_WORLD, 1) - process 6930
MPICH ERROR [Rank 7950] [job id 5424414.0] [Sat Feb  3 13:46:44 2024] [nid006792] - Abort(1) (rank 7950 in comm 0): application called MPI_Abort(MPI_COMM_WORLD, 1) - process 7950

aborting job:
application called MPI_Abort(MPI_COMM_WORLD, 1) - process 7950
MPICH ERROR [Rank 7631] [job id 5424414.0] [Sat Feb  3 13:46:44 2024] [nid006788] - Abort(1) (rank 7631 in comm 0): application called MPI_Abort(MPI_COMM_WORLD, 1) - process 7631

aborting job:
application called MPI_Abort(MPI_COMM_WORLD, 1) - process 7631
MPICH ERROR [Rank 7049] [job id 5424414.0] [Sat Feb  3 13:46:44 2024] [nid004012] - Abort(1) (rank 7049 in comm 0): application called MPI_Abort(MPI_COMM_WORLD, 1) - process 7049

aborting job:
application called MPI_Abort(MPI_COMM_WORLD, 1) - process 7049
MPICH ERROR [Rank 1458] [job id 5424414.0] [Sat Feb  3 13:46:44 2024] [nid001012] - Abort(1) (rank 1458 in comm 0): application called MPI_Abort(MPI_COMM_WORLD, 1) - process 1458

aborting job:
application called MPI_Abort(MPI_COMM_WORLD, 1) - process 1458
MPICH ERROR [Rank 5967] [job id 5424414.0] [Sat Feb  3 13:46:44 2024] [nid004001] - Abort(1) (rank 5967 in comm 0): application called MPI_Abort(MPI_COMM_WORLD, 1) - process 5967

aborting job:
application called MPI_Abort(MPI_COMM_WORLD, 1) - process 5967
MPICH ERROR [Rank 4465] [job id 5424414.0] [Sat Feb  3 13:46:44 2024] [nid001035] - Abort(1) (rank 4465 in comm 0): application called MPI_Abort(MPI_COMM_WORLD, 1) - process 4465

aborting job:
application called MPI_Abort(MPI_COMM_WORLD, 1) - process 4465
MPICH ERROR [Rank 4287] [job id 5424414.0] [Sat Feb  3 13:46:44 2024] [nid001034] - Abort(1) (rank 4287 in comm 0): application called MPI_Abort(MPI_COMM_WORLD, 1) - process 4287

aborting job:
application called MPI_Abort(MPI_COMM_WORLD, 1) - process 4287
MPICH ERROR [Rank 6303] [job id 5424414.0] [Sat Feb  3 13:46:44 2024] [nid004006] - Abort(1) (rank 6303 in comm 0): application called MPI_Abort(MPI_COMM_WORLD, 1) - process 6303

aborting job:
application called MPI_Abort(MPI_COMM_WORLD, 1) - process 6303
MPICH ERROR [Rank 6923] [job id 5424414.0] [Sat Feb  3 13:46:44 2024] [nid004011] - Abort(1) (rank 6923 in comm 0): application called MPI_Abort(MPI_COMM_WORLD, 1) - process 6923

aborting job:
application called MPI_Abort(MPI_COMM_WORLD, 1) - process 6923
MPICH ERROR [Rank 7665] [job id 5424414.0] [Sat Feb  3 13:46:44 2024] [nid006788] - Abort(1) (rank 7665 in comm 0): application called MPI_Abort(MPI_COMM_WORLD, 1) - process 7665

aborting job:
application called MPI_Abort(MPI_COMM_WORLD, 1) - process 7665
MPICH ERROR [Rank 6532] [job id 5424414.0] [Sat Feb  3 13:46:44 2024] [nid004008] - Abort(1) (rank 6532 in comm 0): application called MPI_Abort(MPI_COMM_WORLD, 1) - process 6532

aborting job:
application called MPI_Abort(MPI_COMM_WORLD, 1) - process 6532
MPICH ERROR [Rank 7071] [job id 5424414.0] [Sat Feb  3 13:46:44 2024] [nid004012] - Abort(1) (rank 7071 in comm 0): application called MPI_Abort(MPI_COMM_WORLD, 1) - process 7071

aborting job:
application called MPI_Abort(MPI_COMM_WORLD, 1) - process 7071
MPICH ERROR [Rank 4414] [job id 5424414.0] [Sat Feb  3 13:46:44 2024] [nid001035] - Abort(1) (rank 4414 in comm 0): application called MPI_Abort(MPI_COMM_WORLD, 1) - process 4414

aborting job:
application called MPI_Abort(MPI_COMM_WORLD, 1) - process 4414
MPICH ERROR [Rank 6309] [job id 5424414.0] [Sat Feb  3 13:46:44 2024] [nid004006] - Abort(1) (rank 6309 in comm 0): application called MPI_Abort(MPI_COMM_WORLD, 1) - process 6309

aborting job:
application called MPI_Abort(MPI_COMM_WORLD, 1) - process 6309
MPICH ERROR [Rank 6925] [job id 5424414.0] [Sat Feb  3 13:46:44 2024] [nid004011] - Abort(1) (rank 6925 in comm 0): application called MPI_Abort(MPI_COMM_WORLD, 1) - process 6925

aborting job:
application called MPI_Abort(MPI_COMM_WORLD, 1) - process 6925
MPICH ERROR [Rank 7678] [job id 5424414.0] [Sat Feb  3 13:46:44 2024] [nid006788] - Abort(1) (rank 7678 in comm 0): application called MPI_Abort(MPI_COMM_WORLD, 1) - process 7678

aborting job:
application called MPI_Abort(MPI_COMM_WORLD, 1) - process 7678
MPICH ERROR [Rank 5615] [job id 5424414.0] [Sat Feb  3 13:46:44 2024] [nid003998] - Abort(1) (rank 5615 in comm 0): application called MPI_Abort(MPI_COMM_WORLD, 1) - process 5615

aborting job:
application called MPI_Abort(MPI_COMM_WORLD, 1) - process 5615
MPICH ERROR [Rank 7090] [job id 5424414.0] [Sat Feb  3 13:46:44 2024] [nid004012] - Abort(1) (rank 7090 in comm 0): application called MPI_Abort(MPI_COMM_WORLD, 1) - process 7090

aborting job:
application called MPI_Abort(MPI_COMM_WORLD, 1) - process 7090
MPICH ERROR [Rank 6283] [job id 5424414.0] [Sat Feb  3 13:46:44 2024] [nid004006] - Abort(1) (rank 6283 in comm 0): application called MPI_Abort(MPI_COMM_WORLD, 1) - process 6283

aborting job:
application called MPI_Abort(MPI_COMM_WORLD, 1) - process 6283
MPICH ERROR [Rank 6987] [job id 5424414.0] [Sat Feb  3 13:46:44 2024] [nid004011] - Abort(1) (rank 6987 in comm 0): application called MPI_Abort(MPI_COMM_WORLD, 1) - process 6987

aborting job:
application called MPI_Abort(MPI_COMM_WORLD, 1) - process 6987
MPICH ERROR [Rank 7954] [job id 5424414.0] [Sat Feb  3 13:46:44 2024] [nid006792] - Abort(1) (rank 7954 in comm 0): application called MPI_Abort(MPI_COMM_WORLD, 1) - process 7954

aborting job:
application called MPI_Abort(MPI_COMM_WORLD, 1) - process 7954
MPICH ERROR [Rank 7621] [job id 5424414.0] [Sat Feb  3 13:46:44 2024] [nid006788] - Abort(1) (rank 7621 in comm 0): application called MPI_Abort(MPI_COMM_WORLD, 1) - process 7621

aborting job:
application called MPI_Abort(MPI_COMM_WORLD, 1) - process 7621
MPICH ERROR [Rank 5553] [job id 5424414.0] [Sat Feb  3 13:46:44 2024] [nid003998] - Abort(1) (rank 5553 in comm 0): application called MPI_Abort(MPI_COMM_WORLD, 1) - process 5553

aborting job:
application called MPI_Abort(MPI_COMM_WORLD, 1) - process 5553
MPICH ERROR [Rank 7046] [job id 5424414.0] [Sat Feb  3 13:46:44 2024] [nid004012] - Abort(1) (rank 7046 in comm 0): application called MPI_Abort(MPI_COMM_WORLD, 1) - process 7046

aborting job:
application called MPI_Abort(MPI_COMM_WORLD, 1) - process 7046
MPICH ERROR [Rank 1521] [job id 5424414.0] [Sat Feb  3 13:46:44 2024] [nid001012] - Abort(1) (rank 1521 in comm 0): application called MPI_Abort(MPI_COMM_WORLD, 1) - process 1521

aborting job:
application called MPI_Abort(MPI_COMM_WORLD, 1) - process 1521
MPICH ERROR [Rank 6322] [job id 5424414.0] [Sat Feb  3 13:46:44 2024] [nid004006] - Abort(1) (rank 6322 in comm 0): application called MPI_Abort(MPI_COMM_WORLD, 1) - process 6322

aborting job:
application called MPI_Abort(MPI_COMM_WORLD, 1) - process 6322
MPICH ERROR [Rank 6996] [job id 5424414.0] [Sat Feb  3 13:46:44 2024] [nid004011] - Abort(1) (rank 6996 in comm 0): application called MPI_Abort(MPI_COMM_WORLD, 1) - process 6996

aborting job:
application called MPI_Abort(MPI_COMM_WORLD, 1) - process 6996
MPICH ERROR [Rank 7070] [job id 5424414.0] [Sat Feb  3 13:46:44 2024] [nid004012] - Abort(1) (rank 7070 in comm 0): application called MPI_Abort(MPI_COMM_WORLD, 1) - process 7070

aborting job:
application called MPI_Abort(MPI_COMM_WORLD, 1) - process 7070
MPICH ERROR [Rank 5970] [job id 5424414.0] [Sat Feb  3 13:46:44 2024] [nid004001] - Abort(1) (rank 5970 in comm 0): application called MPI_Abort(MPI_COMM_WORLD, 1) - process 5970

aborting job:
application called MPI_Abort(MPI_COMM_WORLD, 1) - process 5970
MPICH ERROR [Rank 6495] [job id 5424414.0] [Sat Feb  3 13:46:44 2024] [nid004007] - Abort(1) (rank 6495 in comm 0): application called MPI_Abort(MPI_COMM_WORLD, 1) - process 6495

aborting job:
application called MPI_Abort(MPI_COMM_WORLD, 1) - process 6495
MPICH ERROR [Rank 4466] [job id 5424414.0] [Sat Feb  3 13:46:44 2024] [nid001035] - Abort(1) (rank 4466 in comm 0): application called MPI_Abort(MPI_COMM_WORLD, 1) - process 4466

aborting job:
application called MPI_Abort(MPI_COMM_WORLD, 1) - process 4466
MPICH ERROR [Rank 6973] [job id 5424414.0] [Sat Feb  3 13:46:44 2024] [nid004011] - Abort(1) (rank 6973 in comm 0): application called MPI_Abort(MPI_COMM_WORLD, 1) - process 6973

aborting job:
application called MPI_Abort(MPI_COMM_WORLD, 1) - process 6973
MPICH ERROR [Rank 8015] [job id 5424414.0] [Sat Feb  3 13:46:44 2024] [nid006792] - Abort(1) (rank 8015 in comm 0): application called MPI_Abort(MPI_COMM_WORLD, 1) - process 8015

aborting job:
application called MPI_Abort(MPI_COMM_WORLD, 1) - process 8015
MPICH ERROR [Rank 5554] [job id 5424414.0] [Sat Feb  3 13:46:44 2024] [nid003998] - Abort(1) (rank 5554 in comm 0): application called MPI_Abort(MPI_COMM_WORLD, 1) - process 5554

aborting job:
application called MPI_Abort(MPI_COMM_WORLD, 1) - process 5554
MPICH ERROR [Rank 7077] [job id 5424414.0] [Sat Feb  3 13:46:44 2024] [nid004012] - Abort(1) (rank 7077 in comm 0): application called MPI_Abort(MPI_COMM_WORLD, 1) - process 7077

aborting job:
application called MPI_Abort(MPI_COMM_WORLD, 1) - process 7077
MPICH ERROR [Rank 1477] [job id 5424414.0] [Sat Feb  3 13:46:44 2024] [nid001012] - Abort(1) (rank 1477 in comm 0): application called MPI_Abort(MPI_COMM_WORLD, 1) - process 1477

aborting job:
application called MPI_Abort(MPI_COMM_WORLD, 1) - process 1477
MPICH ERROR [Rank 6431] [job id 5424414.0] [Sat Feb  3 13:46:44 2024] [nid004007] - Abort(1) (rank 6431 in comm 0): application called MPI_Abort(MPI_COMM_WORLD, 1) - process 6431

aborting job:
application called MPI_Abort(MPI_COMM_WORLD, 1) - process 6431
MPICH ERROR [Rank 6974] [job id 5424414.0] [Sat Feb  3 13:46:44 2024] [nid004011] - Abort(1) (rank 6974 in comm 0): application called MPI_Abort(MPI_COMM_WORLD, 1) - process 6974

aborting job:
application called MPI_Abort(MPI_COMM_WORLD, 1) - process 6974
MPICH ERROR [Rank 7646] [job id 5424414.0] [Sat Feb  3 13:46:44 2024] [nid006788] - Abort(1) (rank 7646 in comm 0): application called MPI_Abort(MPI_COMM_WORLD, 1) - process 7646

aborting job:
application called MPI_Abort(MPI_COMM_WORLD, 1) - process 7646
MPICH ERROR [Rank 5617] [job id 5424414.0] [Sat Feb  3 13:46:44 2024] [nid003998] - Abort(1) (rank 5617 in comm 0): application called MPI_Abort(MPI_COMM_WORLD, 1) - process 5617

aborting job:
application called MPI_Abort(MPI_COMM_WORLD, 1) - process 5617
MPICH ERROR [Rank 7089] [job id 5424414.0] [Sat Feb  3 13:46:44 2024] [nid004012] - Abort(1) (rank 7089 in comm 0): application called MPI_Abort(MPI_COMM_WORLD, 1) - process 7089

aborting job:
application called MPI_Abort(MPI_COMM_WORLD, 1) - process 7089
[...]
srun: error: nid001012: tasks 1468-1469: Terminated
srun: error: nid001003: tasks 444-445: Terminated
srun: error: nid001035: task 4400: Terminated
srun: error: nid001005: task 695: Terminated
srun: error: nid003998: task 5559: Terminated
srun: error: nid001040: task 5045: Terminated
srun: error: nid001000: tasks 56-57,59,96,123: Terminated
srun: error: nid001020: tasks 2480,2483,2492: Terminated
srun: error: nid001027: task 3379: Terminated
srun: error: nid004010: tasks 6832,6835,6837-6838,6840-6841,6843: Terminated
srun: error: nid001015: task 1843: Terminated
srun: error: nid001022: task 2736: Terminated
srun: error: nid001036: task 4535: Terminated
srun: error: nid001010: task 1212: Terminated
srun: error: nid001038: tasks 4784,4792: Terminated
srun: error: nid006792: tasks 7937,7939-7942,7944,7946,7948,7951,7953,7955-7965,7968,7970,7972,7974-7981,7984,7987,7989-7990,7992-7993,7995,8000,8002-8010,8012,8014,8016,8019,8021-8029,8032,8034-8044,8046,8048,8051,8053-8060: Terminated
srun: error: nid006773: tasks 7425-7426,7428-7429,7431-7434,7436,7438-7441,7443-7454,7456-7469,7471,7475,7477-7483,7485,7488-7490,7492-7498,7500-7501,7503-7505,7507,7509-7517,7520-7532,7534,7536,7539,7541-7549: Terminated
srun: error: nid001023: tasks 2817-2824,2826,2828,2830-2831,2833,2835-2846,2848-2852,2854-2860,2862,2867,2869-2877,2881-2890,2892,2894,2896-2897,2899,2901-2910,2912-2924,2926,2928,2931,2933-2941: Terminated
srun: error: nid004011: tasks 6912-6920,6922,6924,6927-6928,6931-6942,6944-6946,6948,6950-6956,6958,6963,6965-6971,6976,6978-6986,6988-6990,6992-6993,6995,6997-7006,7008-7021,7024,7027,7029-7037: Terminated
srun: error: nid006788: tasks 7553-7555,7557,7560-7562,7564-7569,7571-7578,7580-7581,7584-7586,7588,7590-7597,7599-7600,7603,7605-7606,7609-7611,7616,7618-7620,7622-7629,7632-7633,7635-7645,7648-7649,7651-7662,7664,7667-7677: Terminated
srun: error: nid003996: tasks 5377-5386,5388-5393,5395-5406,5408-5421,5423,5427,5429-5437,5440,5442-5453,5455-5457,5459,5461-5470,5472-5485,5488,5491,5493-5501: Terminated
srun: error: nid001031: tasks 3841-3848,3850,3852,3855-3857,3859-3869,3872,3874,3876,3878-3882,3884-3886,3891,3893-3894,3896-3900,3904-3914,3916-3917,3920,3923,3925-3933,3938-3949,3952,3955,3957-3965: Terminated
srun: error: nid004001: tasks 5888-5896,5898,5900,5902-5904,5906-5918,5920-5922,5924-5934,5936,5939,5941-5942,5944-5948,5953-5962,5964-5966,5968-5969,5971-5982,5984-5997,6000,6003,6005-6013: Terminated
srun: error: nid001020: tasks 2433-2442,2444-2449,2451-2462,2464-2468,2470-2477,2479,2485-2491,2493,2496,2498-2507,2509-2510,2512-2513,2515-2525,2528-2540,2542,2544,2547-2548,2550-2557,2559: Terminated
srun: error: nid001026: tasks 3200,3202-3210,3212-3217,3219-3230,3232-3236,3238-3246,3248,3251,3253-3258,3260-3261,3264,3266-3293,3296-3309,3312,3315,3317-3325: Terminated
srun: error: nid001021: tasks 2561-2570,2572-2590,2592-2604,2606,2608,2611,2613-2621,2624,2626-2637,2639-2641,2643-2653,2656-2669,2672,2675,2677-2685,2687: Terminated
srun: error: nid004011: task 6929: Terminated
srun: error: nid004008: tasks 6529-6531,6533-6538,6540-6545,6547-6558,6560-6564,6566-6573,6575-6576,6579,6581-6583,6585-6587,6589,6593-6609,6611-6622,6624-6635,6637-6638,6640,6643-6653,6655: Terminated
srun: error: nid001028: tasks 3457-3459,3461-3466,3468-3473,3475-3485,3488-3492,3494-3500,3502-3504,3507,3509-3517,3520,3522-3524,3526-3534,3536-3537,3539-3549,3552,3554-3565,3568,3571-3581: Terminated
srun: error: nid001027: tasks 3328-3332,3334-3338,3340,3342-3345,3348-3357,3360,3362-3373,3375,3381-3389,3393-3402,3404-3409,3411,3413-3421,3424,3426-3436,3438,3440,3443,3445-3453: Terminated
srun: error: nid001011: tasks 1280,1282-1290,1292-1297,1299-1310,1312-1325,1327,1331,1333-1341,1344,1346-1357,1359-1361,1363,1365-1374,1376-1389,1392,1395,1397-1405: Terminated
srun: error: nid006791: tasks 7808-7811,7813-7818,7820-7822,7825-7838,7840-7854,7856,7859,7861-7863,7865,7867,7872,7874-7886,7888-7889,7891-7901,7905-7918,7920-7923,7925-7933,7935: Terminated
srun: error: nid001023: tasks 2816,2832,2893: Terminated
srun: error: nid001019: tasks 2304,2306-2314,2316-2333,2336-2350,2355,2357-2365,2368-2380,2382-2385,2387-2397,2400-2413,2416,2419,2421-2429,2431: Terminated
srun: error: nid004012: tasks 7040-7045,7048,7050,7052-7057,7059-7069,7072-7074,7076,7078-7086,7091,7093-7099,7104-7105,7107-7108,7110-7117,7119-7121,7123,7125-7127,7129-7134,7136-7150,7152-7153,7155-7167: Terminated
srun: error: nid001032: tasks 3968,3970-3972,3976,3978,3980-3985,3988-3997,4000,4002,4004,4006-4007,4009-4013,4019,4021-4027,4032-4038,4040-4041,4043-4051,4053-4064,4066-4093,4095: Terminated
srun: error: nid004007: tasks 6400-6410,6412-6429,6432-6445,6447-6448,6451,6453-6461,6464,6466-6476,6478-6481,6483-6493,6496-6512,6515,6517-6527: Terminated
srun: error: nid004000: tasks 5761-5770,5772-5790,5792-5805,5807-5808,5811,5813-5820,5824-5837,5839-5841,5843-5853,5856-5870,5872-5875,5877-5885,5887: Terminated
srun: error: nid001015: tasks 1792-1800,1802,1804,1806-1807,1809-1822,1824-1838,1840,1845-1853,1856,1858-1866,1868-1870,1872-1873,1875-1886,1888-1901,1904,1907,1909-1917: Terminated
srun: error: nid001031: task 3936: Terminated
srun: error: nid001018: tasks 2177-2186,2188-2206,2208-2212,2214-2222,2224,2227,2229-2237,2240,2242-2269,2272-2285,2288,2291-2301: Terminated
srun: error: nid004010: tasks 6785-6814,6816-6830,6839,6848-6865,6867-6877,6880-6883,6885-6894,6896-6899,6901-6909,6911: Terminated
srun: error: nid001013: tasks 1537-1546,1548-1565,1568-1581,1584,1587,1589-1597,1600-1629,1632-1644,1646,1648,1651,1653-1661,1663: Terminated
srun: error: nid004009: tasks 6657-6666,6668-6686,6688-6702,6704,6707,6709-6717,6721-6737,6739-6750,6752-6766,6768,6771,6773-6781,6783: Terminated
srun: error: nid003998: tasks 5504,5506-5521,5523-5534,5536-5540,5542-5550,5552,5555,5557-5558,5560-5565,5569-5585,5587-5598,5600-5613,5616,5619-5629,5631: Terminated
srun: error: nid001024: tasks 2944-2950,2952,2954,2956-2961,2963-2973,2976-2978,2980,2982-2990,2995,2997-3005,3008-3012,3014-3015,3017-3025,3027,3029-3036,3038,3040-3054,3056-3057,3059-3071: Terminated
srun: error: nid004014: tasks 7296-7301,7303-7306,7308-7309,7311-7313,7315-7326,7328-7341,7343-7344,7347,7349-7355,7360-7389,7392-7402,7404-7406,7408,7411-7422: Terminated
srun: error: nid006792: tasks 7952,8001: Terminated
srun: error: nid004013: tasks 7169-7178,7180-7213,7215-7216,7219,7221,7223-7227,7229,7233-7246,7248-7249,7251,7253-7280,7283-7287,7289-7295: Terminated
srun: error: nid006773: task 7502: Terminated
srun: error: nid001012: tasks 1408-1411,1413-1418,1420-1425,1427-1438,1440-1444,1446-1454,1456,1459,1461-1467,1472-1476,1478-1489,1491-1492,1494-1501,1504-1518,1520,1523-1533: Terminated
srun: error: nid004008: task 6528: Terminated
srun: error: nid001028: task 3553: Terminated
srun: error: nid001020: tasks 2497,2541,2549: Terminated
srun: error: nid001017: tasks 2049-2058,2060-2093,2095-2096,2099,2101-2109,2112,2114-2158,2160,2163-2174: Terminated
srun: error: nid006788: tasks 7552,7617: Terminated
srun: error: nid001010: tasks 1153-1162,1164-1182,1184-1197,1199-1200,1205-1211,1213,1216-1220,1222-1245,1248-1257,1259-1262,1264-1265,1267-1278: Terminated
srun: error: nid004012: task 7106: Terminated
srun: error: nid001011: tasks 1345,1358: Terminated
srun: error: nid003996: tasks 5454,5486: Terminated
srun: error: nid001027: task 3425: Terminated
srun: error: nid001014: tasks 1664,1666-1674,1676-1694,1696-1710,1712,1715,1718,1720-1725,1729-1745,1747-1757,1760-1774,1776-1779,1781-1789: Terminated
srun: error: nid001021: tasks 2638,2670: Terminated
srun: error: nid004004: tasks 6017-6021,6024-6026,6028-6032,6034-6046,6048-6050,6052,6054-6062,6064,6067,6069-6075,6080-6094,6096-6097,6099,6101-6110,6112-6126,6128-6143: Terminated
srun: error: nid006789: tasks 7681-7684,7686-7709,7712-7724,7726,7728,7731,7733-7739,7741,7745-7761,7763-7774,7776-7790,7792,7795,7797-7805,7807: Terminated
srun: error: nid001030: tasks 3713-3722,3724-3742,3744-3757,3759-3760,3763,3765-3772,3776-3789,3791-3793,3795-3802,3804-3805,3808-3822,3824-3827,3829-3837,3839: Terminated
srun: error: nid001041: tasks 5121-5166,5168,5171,5173-5181,5185-5230,5232,5235-5246: Terminated
srun: error: nid001032: tasks 4014,4052: Terminated
srun: error: nid006791: tasks 7873,7887: Terminated
srun: error: nid001007: tasks 896-906,908-926,928-932,934-942,944,947,950-957,960-974,976-977,979-984,986-990,992-1006,1008-1021,1023: Terminated
srun: error: nid001005: tasks 640-650,652-685,687-688,691,693-694,696-701,704-708,710-721,723-731,733-734,736-750,752-755,757-765,767: Terminated
srun: error: nid001029: tasks 3585-3588,3590-3613,3616-3629,3632,3635,3637-3643,3645,3648-3662,3664-3665,3667,3669-3678,3680-3694,3696,3699,3701-3709,3711: Terminated
srun: error: nid001022: tasks 2689-2705,2707-2718,2720-2724,2726-2733,2735,2739,2741-2749,2752-2769,2771-2781,2784,2786-2798,2800-2803,2805-2813,2815: Terminated
srun: error: nid001042: tasks 5249-5278,5280-5293,5295-5296,5299,5301-5302,5304-5309,5312-5337,5339-5341,5344-5358,5360-5374: Terminated
srun: error: nid001016: tasks 1920,1922-1930,1932-1950,1952-1956,1958-1966,1968,1971,1973-1981,1984-1998,2000-2001,2003,2005-2014,2016-2030,2032-2047: Terminated
srun: error: nid004009: task 6656: Terminated
srun: error: nid001023: task 2880: Terminated
srun: error: nid001040: tasks 4993-4998,5000-5002,5004-5022,5024-5026,5028,5030-5037,5039-5040,5043,5046-5051,5056-5070,5072-5073,5075-5086,5088-5102,5104,5106-5119: Terminated
srun: error: nid001009: tasks 1025-1034,1036-1070,1072,1075,1077-1085,1088-1089,1091-1102,1104-1118,1120-1133,1135-1136,1139-1151: Terminated
srun: error: nid001031: task 3918: Terminated
srun: error: nid003999: tasks 5632,5634-5661,5664-5677,5680,5683,5685-5693,5696,5698-5726,5728-5742,5744,5747-5757,5759: Terminated
srun: error: nid006794: tasks 8065-8067,8069,8072,8074,8076-8090,8092-8094,8096,8098,8100,8102-8103,8105-8110,8115,8117-8119,8121,8123,8128-8146,8148-8159,8161-8191: Terminated
srun: error: nid001037: tasks 4609-4654,4656,4659,4661-4669,4672,4674-4702,4704-4717,4719-4720,4723-4735: Terminated
srun: error: nid001038: tasks 4737-4780,4782-4783,4787,4789-4791,4793-4797,4800-4814,4816-4817,4819-4830,4832-4846,4848-4851,4853-4861,4863: Terminated
srun: error: nid001015: task 1857: Terminated
srun: error: nid001017: task 2048: Terminated
srun: error: nid001024: task 3016: Terminated
srun: error: nid004012: task 7118: Terminated
srun: error: nid001027: task 3392: Terminated
srun: error: nid006792: tasks 7938,8045: Terminated
srun: error: nid006788: task 7650: Terminated
srun: error: nid001030: tasks 3712,3803: Terminated
srun: error: nid001007: tasks 985,1022: Terminated
srun: error: nid001019: tasks 2305,2414: Terminated
srun: error: nid001018: tasks 2223,2286: Terminated
srun: error: nid001004: tasks 513-542,544-557,559-560,563,565-573,577-606,608-622,624,627-639: Terminated
srun: error: nid001029: task 3695: Terminated
srun: error: nid003998: task 5614: Terminated
srun: error: nid001005: task 732: Terminated
srun: error: nid001003: tasks 385-412,414-420,422-432,435,437-443,448-465,467-478,480-491,493-494,496-509,511: Terminated
srun: error: nid001039: tasks 4864,4866-4874,4876-4894,4896-4910,4912,4915,4917-4925,4928-4958,4960-4976,4979,4981-4991: Terminated
srun: error: nid001006: tasks 768,770-778,780-798,800-812,814-816,819,821-829,832-862,864-877,879-880,883-895: Terminated
srun: error: nid004006: tasks 6272,6274-6282,6284-6302,6304-6308,6310-6315,6317-6320,6323,6325-6331,6333,6336-6365,6368,6370-6382,6384-6399: Terminated
srun: error: nid001025: tasks 3072-3082,3084-3118,3120,3123,3125-3133,3136-3150,3152-3153,3155-3182,3184,3187-3199: Terminated
srun: error: nid001011: task 1281: Terminated
srun: error: nid004008: task 6636: Terminated
srun: error: nid001028: task 3521: Terminated
srun: error: nid004000: task 5760: Terminated
srun: error: nid006773: tasks 7427,7533: Terminated
srun: error: nid004004: tasks 6016,6033: Terminated
srun: error: nid004013: task 7232: Terminated
srun: error: nid001002: tasks 257-301,303-304,307,309-317,320,322-366,368,371-383: Terminated
srun: error: nid004009: task 6767: Terminated
srun: error: nid004005: tasks 6145-6154,6156-6190,6192,6195,6197-6205,6208-6254,6256,6259-6271: Terminated
srun: error: nid004007: task 6477: Terminated
srun: error: nid001036: tasks 4480,4482-4509,4511-4516,4518-4528,4531,4534,4536-4541,4545-4574,4576-4590,4592-4605,4607: Terminated
srun: error: nid001000: tasks 1-48,51-55,58,60-61,64-94,97-112,115-122,124-127: Terminated
srun: error: nid001042: task 5248: Terminated
srun: error: nid001010: tasks 1152,1258: Terminated
srun: error: nid004011: task 6977: Terminated
srun: error: nid001034: tasks 4224-4227,4229-4272,4275,4277-4285,4288-4318,4320-4334,4336-4338,4340-4351: Terminated
srun: error: nid003999: task 5743: Terminated
srun: error: nid004010: task 6831: Terminated
srun: error: nid001040: tasks 4992,5071: Terminated
srun: error: nid001035: tasks 4353-4397,4399,4403,4405-4412,4416-4446,4448-4464,4467-4479: Terminated
srun: error: nid001013: task 1536: Terminated
srun: error: nid001041: task 5184: Terminated
srun: error: nid001004: task 576: Terminated
srun: error: nid001037: task 4673: Terminated
srun: error: nid004001: tasks 5935,5952: Terminated
srun: error: nid004012: task 7128: Terminated
srun: error: nid001009: tasks 1024,1134: Terminated
srun: error: nid001014: tasks 1665,1728: Terminated
srun: error: nid001021: task 2560: Terminated
srun: error: nid001033: tasks 4096-4144,4147-4157,4160-4211,4213-4223: Terminated
srun: error: nid001012: task 1493: Terminated
srun: error: nid006791: task 7824: Terminated
srun: error: nid006789: task 7680: Terminated
srun: error: nid001028: tasks 3456,3566: Terminated
srun: error: nid003998: task 5551: Terminated
srun: error: nid001023: task 2925: Terminated
srun: error: nid001015: task 1808: Terminated
srun: error: nid001022: tasks 2734,2785: Terminated
srun: error: nid001016: task 1967: Terminated
srun: error: nid001036: task 4510: Terminated
srun: error: nid001002: task 367: Terminated
srun: error: nid001031: task 3950: Terminated
srun: error: nid001001: tasks 128-133,135-175,181-189,192-222,224-238,240-255: Terminated
srun: error: nid001027: task 3437: Terminated
srun: error: nid001020: task 2432: Terminated
srun: error: nid006788: task 7630: Terminated
srun: error: nid001026: tasks 3201,3310: Terminated
srun: error: nid001034: task 4228: Terminated
srun: error: nid004005: task 6144: Terminated
srun: error: nid006792: task 7982: Terminated
srun: error: nid001037: task 4608: Terminated
srun: error: nid001004: task 558: Terminated
srun: error: nid001038: tasks 4781,4815: Terminated
srun: error: nid001032: task 4065: Terminated
srun: error: nid001034: task 4339: Terminated
srun: error: nid001029: tasks 3584,3663: Terminated
srun: error: nid004013: tasks 7168,7252: Terminated
srun: error: nid003996: task 5422: Terminated
srun: error: nid006789: task 7744: Terminated
srun: error: nid001041: task 5120: Terminated
srun: error: nid001039: tasks 4865,4980: Terminated
srun: error: nid001035: tasks 4398,4447: Terminated
srun: error: nid001003: task 492: Terminated
srun: error: nid001011: tasks 1326,1390: Terminated
srun: error: nid001019: task 2381: Terminated
srun: error: nid004008: task 6592: Terminated
srun: error: nid003999: tasks 5678,5697: Terminated
srun: error: nid001017: task 2113: Terminated
srun: error: nid004010: task 6884: Terminated
srun: error: nid006792: task 8013: Terminated
srun: error: nid001031: task 3883: Terminated
srun: error: nid001019: task 2351: Terminated
srun: error: nid001013: task 1582: Terminated
srun: error: nid004004: task 6063: Terminated
srun: error: nid001021: task 2625: Terminated
srun: error: nid001006: task 769: Terminated
srun: error: nid004001: task 5998: Terminated
srun: error: nid001025: task 3183: Terminated
srun: error: nid001007: task 975: Terminated
srun: error: nid004007: task 6465: Terminated
srun: error: nid004001: task 5905: Terminated
srun: error: nid006794: tasks 8064,8147: Terminated
srun: error: nid004010: task 6784: Terminated
srun: error: nid001002: task 302: Terminated
srun: error: nid001036: task 4544: Terminated
srun: error: nid001032: task 3969: Terminated
srun: error: nid004006: tasks 6273,6369: Terminated
srun: error: nid001013: task 1645: Terminated
srun: error: nid001023: task 2861: Terminated
srun: error: nid001001: task 134: Terminated
srun: error: nid001022: task 2688: Terminated
srun: error: nid004014: task 7342: Terminated
srun: error: nid006788: task 7598: Terminated
srun: error: nid001028: task 3501: Terminated
srun: error: nid001004: task 623: Terminated
srun: error: nid001003: task 413: Terminated
srun: error: nid001020: task 2508: Terminated
srun: error: nid003998: tasks 5505,5568: Terminated
srun: error: nid004012: task 7087: Terminated
srun: error: nid001018: task 2176: Terminated
srun: error: nid001042: task 5338: Terminated
srun: error: nid001027: task 3374: Terminated
srun: error: nid001029: task 3630: Terminated
srun: error: nid004004: task 6095: Terminated
srun: error: nid001040: task 5105: Terminated
srun: error: nid004011: tasks 6957,7022: Terminated
srun: error: nid001015: tasks 1839,1902: Terminated
srun: error: nid001024: tasks 2991,3037: Terminated
srun: error: nid006773: task 7470: Terminated
srun: error: nid004005: task 6255: Terminated
srun: error: nid004009: task 6720: Terminated
srun: error: nid001014: task 1711: Terminated
srun: error: nid006773: task 7491: Terminated
srun: error: nid001002: task 321: Terminated
srun: error: nid004005: task 6191: Terminated
srun: error: nid001030: task 3790: Terminated
srun: error: nid001010: task 1221: Terminated
srun: error: nid003999: task 5633: Terminated
srun: error: nid001040: task 5038: Terminated
srun: error: nid003996: task 5376: Terminated
srun: error: nid001037: task 4655: Terminated
srun: error: nid001016: task 1999: Terminated
srun: error: nid001017: task 2159: Terminated
srun: error: nid001031: task 3840: Terminated
srun: error: nid001041: task 5231: Terminated
srun: error: nid001025: task 3119: Terminated
srun: error: nid001009: task 1090: Terminated
srun: error: nid006789: tasks 7725,7791: Terminated
srun: error: nid001012: task 1412: Terminated
srun: error: nid001037: task 4718: Terminated
srun: error: nid001004: task 512: Terminated
srun: error: nid006794: task 8160: Terminated
srun: error: nid001006: tasks 813,878: Terminated
srun: error: nid001010: task 1198: Terminated
srun: error: nid001003: task 384: Terminated
srun: error: nid001005: task 709: Terminated
srun: error: nid001002: task 256: Terminated
srun: error: nid006791: task 7904: Terminated
srun: error: nid001007: task 943: Terminated
srun: error: nid003996: task 5441: Terminated
srun: error: nid004000: task 5806: Terminated
srun: error: nid001018: task 2241: Terminated
srun: error: nid004013: task 7214: Terminated
srun: error: nid001041: task 5167: Terminated
srun: error: nid001039: task 4911: Terminated
srun: error: nid001021: task 2605: Terminated
srun: error: nid004014: task 7403: Terminated
srun: error: nid001030: task 3758: Terminated
srun: error: nid001036: task 4481: Terminated
srun: error: nid001020: task 2478: Terminated
srun: error: nid004000: task 5838: Terminated
srun: error: nid001038: task 4736: Terminated
srun: error: nid001000: task 0: Terminated
srun: error: nid001042: task 5294: Terminated
srun: error: nid006791: task 7855: Terminated
srun: error: nid004009: task 6703: Terminated
srun: error: nid001026: tasks 3247,3265: Terminated
srun: error: nid001016: task 1921: Terminated
srun: error: nid004006: task 6316: Terminated
srun: error: nid004007: task 6446: Terminated
srun: error: nid004008: task 6574: Terminated
srun: error: nid001009: task 1071: Terminated
srun: error: nid001032: task 4094: Terminated
srun: error: nid001035: task 4352: Terminated
srun: error: nid001005: task 686: Terminated
srun: error: nid001017: task 2094: Terminated
srun: Force Terminated StepId=5424414.0
