 vasp.6.3.0 20Jan22 (build Feb  3 2022 09:42:37) complex                         
 executed on        HPECrayEX_GCC date 2022.02.03  10:07:41
 running 8192 mpi-ranks, with    1 threads/rank
 distrk:  each k-point on 4096 cores,    2 groups
 distr:  one band on NCORE=  16 cores,  256 groups


--------------------------------------------------------------------------------------------------------


 INCAR:
   AEXX = 0.25
   ENCUT = 450
   ICORELEVEL = 0
   NSW = 0
   LSORBIT = True
   EDIFF = 1e-06
   EDIFFG = -0.01
   ALGO = All
   ADDGRID = True
   HFSCREEN = 0.2
   IBRION = -1
   ICHARG = 1
   ISIF = 2
   ISYM = 0
   ISMEAR = 0
   LASPH = True
   LHFCALC = True
   LORBIT = 11
   LREAL = False
   LVHAR = True
   LWAVE = True
   NEDOS = 2000
   NELM = 6
   PREC = Accurate
   PRECFOCK = Fast
   SIGMA = 0.05
   NELECT = 588
   NCORE = 16
   KPAR = 2

 POTCAR:    PAW_PBE Cd 06Sep2000                  
 POTCAR:    PAW_PBE Te 08Apr2002                  
 -----------------------------------------------------------------------------
|                                                                             |
|           W    W    AA    RRRRR   N    N  II  N    N   GGGG   !!!           |
|           W    W   A  A   R    R  NN   N  II  NN   N  G    G  !!!           |
|           W    W  A    A  R    R  N N  N  II  N N  N  G       !!!           |
|           W WW W  AAAAAA  RRRRR   N  N N  II  N  N N  G  GGG   !            |
|           WW  WW  A    A  R   R   N   NN  II  N   NN  G    G                |
|           W    W  A    A  R    R  N    N  II  N    N   GGGG   !!!           |
|                                                                             |
|     You use a magnetic or noncollinear calculation, but did not specify     |
|     the initial magnetic moment with the MAGMOM tag. Note that a            |
|     default of 1 will be used for all atoms. This ferromagnetic setup       |
|     may break the symmetry of the crystal, in particular it may rule        |
|     out finding an antiferromagnetic solution. Thence, we recommend         |
|     setting the initial magnetic moment manually or verifying carefully     |
|     that this magnetic setup is desired.                                    |
|                                                                             |
 -----------------------------------------------------------------------------

 POTCAR:    PAW_PBE Cd 06Sep2000                  
   VRHFIN =Cd : s2 d10                                                                              
   LEXCH  = PE                                                                                      
   EATOM  =  1293.1815 eV,   95.0462 Ry                                                             
                                                                                                    
   TITEL  = PAW_PBE Cd 06Sep2000                                                                    
   LULTRA =        F    use ultrasoft PP ?                                                          
   IUNSCR =        1    unscreen: 0-lin 1-nonlin 2-no                                               
   RPACOR =    2.000    partial core radius                                                         
   POMASS =  112.411; ZVAL   =   12.000    mass and valenz                                          
   RCORE  =    2.300    outmost cutoff radius                                                       
   RWIGS  =    2.980; RWIGS  =    1.577    wigner-seitz radius (au A)                               
   ENMAX  =  274.336; ENMIN  =  205.752 eV                                                          
   RCLOC  =    2.054    cutoff for local pot                                                        
   LCOR   =        T    correct aug charges                                                         
   LPAW   =        T    paw PP                                                                      
   EAUG   =  456.106                                                                                
   DEXC   =    0.000                                                                                
   RMAX   =    2.358    core radius for proj-oper                                                   
   RAUG   =    1.300    factor for augmentation sphere                                              
   RDEP   =    2.450    radius for radial grids                                                     
   RDEPT  =    1.955    core radius for aug-charge                                                  
                                                                                                    
   Atomic configuration                                                                             
   12 entries                                                                                       
     n  l   j            E        occ.                                                              
     1  0  0.50    -26519.7817   2.0000                                                             
     2  0  0.50     -3936.9612   2.0000                                                             
     2  1  1.50     -3532.2230   6.0000                                                             
     3  0  0.50      -733.7908   2.0000                                                             
     3  1  1.50      -601.0792   6.0000                                                             
     3  2  2.50      -393.5307  10.0000                                                             
     4  0  0.50      -105.8977   2.0000                                                             
     4  1  1.50       -66.9488   6.0000                                                             
     4  2  2.50       -11.7331  10.0000                                                             
     5  0  0.50        -5.6592   2.0000                                                             
     5  1  0.50        -1.3606   0.0000                                                             
     4  3  2.50        -1.3606   0.0000                                                             
   Description                                                                                      
     l       E           TYP  RCUT    TYP  RCUT                                                     
     2    -11.7331479     23  2.300                                                                 
     2    -13.0937305     23  2.300                                                                 
     0     -5.6591502     23  2.300                                                                 
     0     -1.5561433     23  2.300                                                                 
     1     -2.7211652     23  2.300                                                                 
     1      8.3548275     23  2.300                                                                 
  local pseudopotential read in
  partial core-charges read in
  partial kinetic energy density read in
  atomic valenz-charges read in
  non local Contribution for L=           2  read in
    real space projection operators read in
  non local Contribution for L=           2  read in
    real space projection operators read in
  non local Contribution for L=           0  read in
    real space projection operators read in
  non local Contribution for L=           0  read in
    real space projection operators read in
  non local Contribution for L=           1  read in
    real space projection operators read in
  non local Contribution for L=           1  read in
    real space projection operators read in
    PAW grid and wavefunctions read in

   number of l-projection  operators is LMAX  =           6
   number of lm-projection operators is LMMAX =          18

 POTCAR:    PAW_PBE Te 08Apr2002                  
   VRHFIN =Te: s2p4                                                                                 
   LEXCH  = PE                                                                                      
   EATOM  =   223.2721 eV,   16.4100 Ry                                                             
                                                                                                    
   TITEL  = PAW_PBE Te 08Apr2002                                                                    
   LULTRA =        F    use ultrasoft PP ?                                                          
   IUNSCR =        1    unscreen: 0-lin 1-nonlin 2-no                                               
   RPACOR =    2.200    partial core radius                                                         
   POMASS =  127.600; ZVAL   =    6.000    mass and valenz                                          
   RCORE  =    2.300    outmost cutoff radius                                                       
   RWIGS  =    2.900; RWIGS  =    1.535    wigner-seitz radius (au A)                               
   ENMAX  =  174.982; ENMIN  =  131.236 eV                                                          
   ICORE  =        3    local potential                                                             
   LCOR   =        T    correct aug charges                                                         
   LPAW   =        T    paw PP                                                                      
   EAUG   =  368.792                                                                                
   DEXC   =    0.000                                                                                
   RMAX   =    2.345    core radius for proj-oper                                                   
   RAUG   =    1.300    factor for augmentation sphere                                              
   RDEP   =    2.397    radius for radial grids                                                     
   RDEPT  =    2.174    core radius for aug-charge                                                  
                                                                                                    
   Atomic configuration                                                                             
   13 entries                                                                                       
     n  l   j            E        occ.                                                              
     1  0  0.50    -31621.2075   2.0000                                                             
     2  0  0.50     -4848.7941   2.0000                                                             
     2  1  1.50     -4352.1960   6.0000                                                             
     3  0  0.50      -964.9612   2.0000                                                             
     3  1  1.50      -803.6179   6.0000                                                             
     3  2  2.50      -559.8710  10.0000                                                             
     4  0  0.50      -164.3522   2.0000                                                             
     4  1  1.50      -114.3756   6.0000                                                             
     4  2  2.50       -41.6483  10.0000                                                             
     5  0  0.50       -15.1072   2.0000                                                             
     5  1  0.50        -5.9526   4.0000                                                             
     5  2  1.50        -5.4423   0.0000                                                             
     4  3  2.50        -5.4423   0.0000                                                             
   Description                                                                                      
     l       E           TYP  RCUT    TYP  RCUT                                                     
     0    -15.1072389     23  2.300                                                                 
     0    -16.4678215     23  2.300                                                                 
     1     -5.9526306     23  2.300                                                                 
     1     -2.4873968     23  2.300                                                                 
     2     -5.4423304     23  2.300                                                                 
     3     -1.3605826     23  2.300                                                                 
  local pseudopotential read in
  partial core-charges read in
  partial kinetic energy density read in
  atomic valenz-charges read in
  non local Contribution for L=           0  read in
    real space projection operators read in
  non local Contribution for L=           0  read in
    real space projection operators read in
  non local Contribution for L=           1  read in
    real space projection operators read in
  non local Contribution for L=           1  read in
    real space projection operators read in
  non local Contribution for L=           2  read in
    real space projection operators read in
    PAW grid and wavefunctions read in

   number of l-projection  operators is LMAX  =           5
   number of lm-projection operators is LMMAX =          13

 -----------------------------------------------------------------------------
|                                                                             |
|               ----> ADVICE to this user running VASP <----                  |
|                                                                             |
|     You have a (more or less) 'large supercell' and for larger cells it     |
|     might be more efficient to use real-space projection operators.         |
|     Therefore, try LREAL= Auto in the INCAR file.                           |
|     Mind: For very accurate calculation, you might also keep the            |
|     reciprocal projection scheme (i.e. LREAL=.FALSE.).                      |
|                                                                             |
 -----------------------------------------------------------------------------

  PAW_PBE Cd 06Sep2000                  :
 energy of atom  1       EATOM=-1293.1815
 kinetic energy error for atom=    0.0084 (will be added to EATOM!!)
  PAW_PBE Te 08Apr2002                  :
 energy of atom  2       EATOM= -223.2721
 kinetic energy error for atom=    0.0008 (will be added to EATOM!!)


 POSCAR: Cd33 Te32
  positions in direct lattice
  No initial velocities read in
 exchange correlation table for  LEXCH =        8
   RHO(1)=    0.500       N(1)  =     2000
   RHO(2)=  100.500       N(2)  =     4000



--------------------------------------------------------------------------------------------------------


 ion  position               nearest neighbor table
   1  0.004  0.996  0.004-  44 2.79  35 2.93  54 2.93  65 2.93  33 2.94
   2  0.001  0.999  0.497-  55 2.82  34 2.82  64 2.82  45 2.84
   3  0.001  0.503  0.001-  63 2.82  56 2.82  37 2.82  42 2.84
   4  1.000  0.501  0.499-  57 2.82  62 2.82  36 2.82  43 2.84
   5  0.497  0.999  0.001-  39 2.82  50 2.82  61 2.82  48 2.84
   6  0.499  0.000  0.499-  38 2.82  51 2.82  60 2.82  49 2.84
   7  0.499  0.501  1.000-  41 2.82  59 2.82  52 2.82  46 2.84
   8  0.501  0.499  0.501-  47 2.82  40 2.83  53 2.83  58 2.83
   9  0.001  0.251  0.253-  54 2.82  34 2.82  62 2.82  42 2.84
  10  0.004  0.254  0.746-  43 2.79  35 2.93  55 2.93  63 2.93  33 2.94
  11  1.000  0.749  0.251-  56 2.82  64 2.82  36 2.82  44 2.84
  12  0.001  0.747  0.749-  65 2.82  57 2.82  37 2.82  45 2.84
  13  0.499  0.250  0.251-  38 2.82  50 2.82  58 2.82  46 2.84
  14  0.497  0.251  0.749-  39 2.82  51 2.82  59 2.82  47 2.84
  15  0.501  0.751  0.249-  48 2.82  40 2.83  52 2.83  60 2.83
  16  0.499  0.749  0.750-  41 2.82  61 2.82  53 2.82  49 2.84
  17  0.251  0.000  0.251-  34 2.82  50 2.82  60 2.82  44 2.84
  18  0.253  0.999  0.749-  35 2.82  51 2.82  61 2.82  45 2.84
  19  0.249  0.499  0.249-  42 2.82  36 2.83  52 2.83  58 2.83
  20  0.251  0.501  0.750-  37 2.82  59 2.82  53 2.82  43 2.84
  21  0.749  0.999  0.253-  54 2.82  38 2.82  64 2.82  48 2.84
  22  0.746  0.996  0.746-  49 2.79  39 2.93  55 2.93  65 2.93  33 2.94
  23  0.750  0.501  0.251-  56 2.82  62 2.82  40 2.82  46 2.84
  24  0.749  0.503  0.749-  63 2.82  57 2.82  41 2.82  47 2.84
  25  0.253  0.251  0.001-  35 2.82  50 2.82  59 2.82  42 2.84
  26  0.251  0.250  0.499-  34 2.82  51 2.82  58 2.82  43 2.84
  27  0.251  0.749  1.000-  37 2.82  61 2.82  52 2.82  44 2.84
  28  0.249  0.751  0.501-  45 2.82  36 2.83  53 2.83  60 2.83
  29  0.746  0.254  0.004-  46 2.79  39 2.93  54 2.93  63 2.93  33 2.94
  30  0.749  0.251  0.497-  55 2.82  38 2.82  62 2.82  47 2.84
  31  0.749  0.747  0.001-  65 2.82  56 2.82  41 2.82  48 2.84
  32  0.750  0.749  0.499-  57 2.82  64 2.82  40 2.82  49 2.84
  33  0.875  0.125  0.875-   1 2.94  10 2.94  22 2.94  29 2.94  35 3.37  39 3.37  54 3.37  55 3.37
                            63 3.37  65 3.37
  34  0.127  0.125  0.375-  17 2.82  26 2.82   2 2.82   9 2.82
  35  0.133  0.125  0.875-  18 2.82  25 2.82  10 2.93   1 2.93  33 3.37
  36  0.126  0.625  0.375-   4 2.82  11 2.82  19 2.83  28 2.83
  37  0.127  0.625  0.875-  20 2.82  27 2.82   3 2.82  12 2.82
  38  0.623  0.125  0.375-  13 2.82   6 2.82  21 2.82  30 2.82
  39  0.617  0.125  0.875-  14 2.82   5 2.82  22 2.93  29 2.93  33 3.37
  40  0.624  0.625  0.375-  23 2.82  32 2.82   8 2.83  15 2.83
  41  0.623  0.625  0.875-   7 2.82  16 2.82  31 2.82  24 2.82
  42  0.125  0.375  0.125-  19 2.82   9 2.84  25 2.84   3 2.84
  43  0.127  0.377  0.623-  10 2.79   4 2.84  26 2.84  20 2.84
  44  0.127  0.873  0.127-   1 2.79  11 2.84  17 2.84  27 2.84
  45  0.125  0.875  0.625-  28 2.82  18 2.84   2 2.84  12 2.84
  46  0.623  0.377  0.127-  29 2.79  13 2.84  23 2.84   7 2.84
  47  0.625  0.375  0.625-   8 2.82  14 2.84  24 2.84  30 2.84
  48  0.625  0.875  0.125-  15 2.82  21 2.84   5 2.84  31 2.84
  49  0.623  0.873  0.623-  22 2.79  32 2.84   6 2.84  16 2.84
  50  0.375  0.125  0.127-  17 2.82  13 2.82   5 2.82  25 2.82
  51  0.375  0.125  0.623-   6 2.82  26 2.82  18 2.82  14 2.82
  52  0.375  0.625  0.126-   7 2.82  27 2.82  19 2.83  15 2.83
  53  0.375  0.625  0.624-  16 2.82  20 2.82   8 2.83  28 2.83
  54  0.875  0.125  0.133-   9 2.82  21 2.82   1 2.93  29 2.93  33 3.37
  55  0.875  0.125  0.617-  30 2.82   2 2.82  22 2.93  10 2.93  33 3.37
  56  0.875  0.625  0.127-  11 2.82  23 2.82   3 2.82  31 2.82
  57  0.875  0.625  0.623-   4 2.82  32 2.82  12 2.82  24 2.82
  58  0.375  0.376  0.375-  26 2.82  13 2.82  19 2.83   8 2.83
  59  0.375  0.377  0.875-   7 2.82  20 2.82  14 2.82  25 2.82
  60  0.375  0.874  0.375-   6 2.82  17 2.82  15 2.83  28 2.83
  61  0.375  0.873  0.875-  16 2.82  27 2.82   5 2.82  18 2.82
  62  0.875  0.377  0.375-   4 2.82  23 2.82   9 2.82  30 2.82
  63  0.875  0.383  0.875-  24 2.82   3 2.82  10 2.93  29 2.93  33 3.37
  64  0.875  0.873  0.375-  11 2.82  32 2.82   2 2.82  21 2.82
  65  0.875  0.867  0.875-  12 2.82  31 2.82   1 2.93  22 2.93  33 3.37


IMPORTANT INFORMATION: All symmetrisations will be switched off!
NOSYMM: (Re-)initialisation of all symmetry stuff for point group C_1.


----------------------------------------------------------------------------------------

                                     Primitive cell                                     

  volume of cell :    2241.2856

  direct lattice vectors                    reciprocal lattice vectors
    13.086768000  0.000000000  0.000000000     0.076413061  0.000000000  0.000000000
     0.000000000 13.086768000  0.000000000     0.000000000  0.076413061  0.000000000
     0.000000000  0.000000000 13.086768000     0.000000000  0.000000000  0.076413061

  length of vectors
    13.086768000 13.086768000 13.086768000     0.076413061  0.076413061  0.076413061

  position of ions in fractional coordinates (direct lattice)
     0.004485000  0.995515000  0.004485000
     0.001247000  0.998753000  0.496959000
     0.001247000  0.503041000  0.001247000
     0.999625000  0.501218000  0.498782000
     0.496959000  0.998753000  0.001247000
     0.498781000  0.000375000  0.498781000
     0.498781000  0.501219000  0.999625000
     0.500528000  0.499472000  0.500528000
     0.001247000  0.251247000  0.253040000
     0.004486000  0.254485000  0.745515000
     0.999625000  0.748782000  0.251218000
     0.001247000  0.746959000  0.748753000
     0.498782000  0.249625000  0.251219000
     0.496960000  0.251247000  0.748753000
     0.500528000  0.750528000  0.249472000
     0.498781000  0.748781000  0.750375000
     0.251219000  0.000375000  0.251219000
     0.253040000  0.998753000  0.748753000
     0.249472000  0.499472000  0.249472000
     0.251219000  0.501219000  0.750375000
     0.748753000  0.998753000  0.253040000
     0.745514000  0.995515000  0.745515000
     0.750375000  0.501219000  0.251219000
     0.748753000  0.503040000  0.748753000
     0.253040000  0.251247000  0.001247000
     0.251219000  0.249625000  0.498781000
     0.251219000  0.748781000  0.999625000
     0.249472000  0.750528000  0.500528000
     0.745514000  0.254485000  0.004485000
     0.748753000  0.251247000  0.496960000
     0.748753000  0.746959000  0.001247000
     0.750375000  0.748782000  0.498782000
     0.875000000  0.125000000  0.875000000
     0.126656000  0.125000000  0.375000000
     0.132779000  0.125000000  0.875000000
     0.125892000  0.625000000  0.375000000
     0.126656000  0.625000000  0.875000000
     0.623344000  0.125000000  0.375000000
     0.617221000  0.125000000  0.875000000
     0.624108000  0.625000000  0.375000000
     0.623344000  0.625000000  0.875000000
     0.124848000  0.374848000  0.124848000
     0.127488000  0.377488000  0.622512000
     0.127488000  0.872512000  0.127488000
     0.124848000  0.875152000  0.625152000
     0.622512000  0.377488000  0.127488000
     0.625152000  0.374848000  0.625152000
     0.625152000  0.875152000  0.124848000
     0.622512000  0.872512000  0.622512000
     0.375000000  0.125000000  0.126656000
     0.375000000  0.125000000  0.623344000
     0.375000000  0.625000000  0.125892000
     0.375000000  0.625000000  0.624108000
     0.875000000  0.125000000  0.132779000
     0.875000000  0.125000000  0.617221000
     0.875000000  0.625000000  0.126656000
     0.875000000  0.625000000  0.623344000
     0.375000000  0.375892000  0.375000000
     0.375000000  0.376656000  0.875000000
     0.375000000  0.874108000  0.375000000
     0.375000000  0.873344000  0.875000000
     0.875000000  0.376656000  0.375000000
     0.875000000  0.382779000  0.875000000
     0.875000000  0.873344000  0.375000000
     0.875000000  0.867221000  0.875000000

  ion indices of the primitive-cell ions
   primitive index   ion index
                 1           1
                 2           2
                 3           3
                 4           4
                 5           5
                 6           6
                 7           7
                 8           8
                 9           9
                10          10
                11          11
                12          12
                13          13
                14          14
                15          15
                16          16
                17          17
                18          18
                19          19
                20          20
                21          21
                22          22
                23          23
                24          24
                25          25
                26          26
                27          27
                28          28
                29          29
                30          30
                31          31
                32          32
                33          33
                34          34
                35          35
                36          36
                37          37
                38          38
                39          39
                40          40
                41          41
                42          42
                43          43
                44          44
                45          45
                46          46
                47          47
                48          48
                49          49
                50          50
                51          51
                52          52
                53          53
                54          54
                55          55
                56          56
                57          57
                58          58
                59          59
                60          60
                61          61
                62          62
                63          63
                64          64
                65          65

----------------------------------------------------------------------------------------



 KPOINTS: Automatically generated mesh            

Read explicit list of k-points.

 Found      8 k-points:

 Following reciprocal coordinates:
            Coordinates               Weight
  0.000000  0.000000  0.000000      0.125000
  0.500000  0.000000  0.000000      0.125000
  0.000000  0.500000  0.000000      0.125000
  0.500000  0.500000  0.000000      0.125000
  0.000000  0.000000  0.500000      0.125000
  0.500000  0.000000  0.500000      0.125000
  0.000000  0.500000  0.500000      0.125000
  0.500000  0.500000  0.500000      0.125000

 Following cartesian coordinates:
            Coordinates               Weight
  0.000000  0.000000  0.000000      0.125000
  0.038207  0.000000  0.000000      0.125000
  0.000000  0.038207  0.000000      0.125000
  0.038207  0.038207  0.000000      0.125000
  0.000000  0.000000  0.038207      0.125000
  0.038207  0.000000  0.038207      0.125000
  0.000000  0.038207  0.038207      0.125000
  0.038207  0.038207  0.038207      0.125000

 
 Subroutine IBZKPT_HF returns following result:
 ==============================================
 
 Found      8 k-points in 1st BZ
 the following      8 k-points will be used (e.g. in the exchange kernel)
 Following reciprocal coordinates:   # in IRBZ
  0.000000  0.000000  0.000000    0.12500000   1 t-inv F
  0.500000  0.000000  0.000000    0.12500000   2 t-inv F
  0.000000  0.500000  0.000000    0.12500000   3 t-inv F
  0.500000  0.500000  0.000000    0.12500000   4 t-inv F
  0.000000  0.000000  0.500000    0.12500000   5 t-inv F
  0.500000  0.000000  0.500000    0.12500000   6 t-inv F
  0.000000  0.500000  0.500000    0.12500000   7 t-inv F
  0.500000  0.500000  0.500000    0.12500000   8 t-inv F


--------------------------------------------------------------------------------------------------------




 Dimension of arrays:
   k-points           NKPTS =      8   k-points in BZ     NKDIM =      8   number of bands    NBANDS=   1024
   number of dos      NEDOS =   2000   number of ions     NIONS =     65
   non local maximal  LDIM  =      6   non local SUM 2l+1 LMDIM =     18
   total plane-waves  NPLWV = 884736
   max r-space proj   IRMAX =      1   max aug-charges    IRDMAX= 183854
   dimension x,y,z NGX =    96 NGY =   96 NGZ =   96
   dimension x,y,z NGXF=   192 NGYF=  192 NGZF=  192
   support grid    NGXF=   384 NGYF=  384 NGZF=  384
   ions per type =              33  32
   NGX,Y,Z   is equivalent  to a cutoff of  12.20, 12.20, 12.20 a.u.
   NGXF,Y,Z  is equivalent  to a cutoff of  24.39, 24.39, 24.39 a.u.

 SYSTEM =  unknown system                          
 POSCAR =  Cd33 Te32                               

 Startparameter for this run:
   NWRITE =      2    write-flag & timer
   PREC   = accura    normal or accurate (medium, high low for compatibility)
   ISTART =      0    job   : 0-new  1-cont  2-samecut
   ICHARG =      1    charge: 1-file 2-atom 10-const
   ISPIN  =      1    spin polarized calculation?
   LNONCOLLINEAR =      T non collinear calculations
   LSORBIT =      T    spin-orbit coupling
   INIWAV =      1    electr: 0-lowe 1-rand  2-diag
   LASPH  =      T    aspherical Exc in radial PAW
 Electronic Relaxation 1
   ENCUT  =  450.0 eV  33.07 Ry    5.75 a.u.  22.64 22.64 22.64*2*pi/ulx,y,z
   ENINI  =  450.0     initial cutoff
   ENAUG  =  456.1 eV  augmentation charge cutoff
   NELM   =      6;   NELMIN=  2; NELMDL= -5     # of ELM steps 
   EDIFF  = 0.1E-05   stopping-criterion for ELM
   LREAL  =      F    real-space projection
   NLSPLINE    = F    spline interpolate recip. space projectors
   LCOMPAT=      F    compatible to vasp.4.4
   GGA_COMPAT  = T    GGA compatible to vasp.4.4-vasp.4.6
   LMAXPAW     = -100 max onsite density
   LMAXMIX     =    2 max onsite mixed and CHGCAR
   VOSKOWN=      0    Vosko Wilk Nusair interpolation
   ROPT   =    0.00000   0.00000
 Ionic relaxation
   EDIFFG = -.1E-01   stopping-criterion for IOM
   NSW    =      0    number of steps for IOM
   NBLOCK =      1;   KBLOCK =      1    inner block; outer block 
   IBRION =     -1    ionic relax: 0-MD 1-quasi-New 2-CG
   NFREE  =      0    steps in history (QN), initial steepest desc. (CG)
   ISIF   =      2    stress and relaxation
   IWAVPR =     10    prediction:  0-non 1-charg 2-wave 3-comb
   ISYM   =      0    0-nonsym 1-usesym 2-fastsym
   LCORR  =      T    Harris-Foulkes like correction to forces

   POTIM  = 0.5000    time-step for ionic-motion
   TEIN   =    0.0    initial temperature
   TEBEG  =    0.0;   TEEND  =   0.0 temperature during run
   SMASS  =  -3.00    Nose mass-parameter (am)
   estimated Nose-frequenzy (Omega)   =  0.10E-29 period in steps = 0.13E+47 mass=  -0.391E-26a.u.
   SCALEE = 1.0000    scale energy and forces
   NPACO  =    256;   APACO  = 10.0  distance and # of slots for P.C.
   PSTRESS=    0.0 pullay stress

  Mass of Ions in am
   POMASS = 112.41127.60
  Ionic Valenz
   ZVAL   =  12.00  6.00
  Atomic Wigner-Seitz radii
   RWIGS  =  -1.00 -1.00
  virtual crystal weights 
   VCA    =   1.00  1.00
   NELECT =     588.0000    total number of electrons
   NUPDOWN=      -1.0000    fix difference up-down

 DOS related values:
   EMIN   =  10.00;   EMAX   =-10.00  energy-range for DOS
   EFERMI =   0.00
   ISMEAR =     0;   SIGMA  =   0.05  broadening in eV -4-tet -1-fermi 0-gaus

 Electronic relaxation 2 (details)
   IALGO  =     58    algorithm
   LDIAG  =      T    sub-space diagonalisation (order eigenvalues)
   LSUBROT=      F    optimize rotation matrix (better conditioning)
   TURBO    =      0    0=normal 1=particle mesh
   IRESTART =      0    0=no restart 2=restart with 2 vectors
   NREBOOT  =      0    no. of reboots
   NMIN     =      0    reboot dimension
   EREF     =   0.00    reference energy to select bands
   IMIX   =      4    mixing-type and parameters
     AMIX     =   0.40;   BMIX     =  1.00
     AMIX_MAG =   1.60;   BMIX_MAG =  1.00
     AMIN     =   0.10
     WC   =   100.;   INIMIX=   1;  MIXPRE=   1;  MAXMIX= -45

 Intra band minimization:
   WEIMIN = 0.0000     energy-eigenvalue tresh-hold
   EBREAK =  0.24E-09  absolut break condition
   DEPER  =   0.30     relativ break condition  

   TIME   =   0.40     timestep for ELM

  volume/ion in A,a.u.               =      34.48       232.69
  Fermi-wavevector in a.u.,A,eV,Ry     =   1.048017  1.980464 14.943809  1.098339
  Thomas-Fermi vector in A             =   2.182921

 Write flags
   LWAVE        =      T    write WAVECAR
   LDOWNSAMPLE  =      F    k-point downsampling of WAVECAR
   LCHARG       =      T    write CHGCAR
   LVTOT        =      F    write LOCPOT, total local potential
   LVHAR        =      T    write LOCPOT, Hartree potential only
   LELF         =      F    write electronic localiz. function (ELF)
   LORBIT       =     11    0 simple, 1 ext, 2 COOP (PROOUT), +10 PAW based schemes


 Dipole corrections
   LMONO  =      F    monopole corrections only (constant potential shift)
   LDIPOL =      F    correct potential (dipole corrections)
   IDIPOL =      0    1-x, 2-y, 3-z, 4-all directions 
   EPSILON=  1.0000000 bulk dielectric constant

 Exchange correlation treatment:
   GGA     =    --    GGA type
   LEXCH   =     8    internal setting for exchange type
   LIBXC   =     F    Libxc                    
   VOSKOWN =     0    Vosko Wilk Nusair interpolation
   EXXOEP  =     0    0=HF, 1=EXX-LHF (local Hartree Fock) 2=EXX OEP
   LHFCALC =     T    Hartree Fock is set to
   LSYMGRAD=     F    symmetrize gradient (conserves proper symmetry)
   PRECFOCK=fast      Normal, Fast or Accurate (Low or Medium for compatibility)
   LRHFCALC=     F    long range Hartree Fock
   LRSCOR  =     F    long range correlation only (use DFT for short range part)
   LTHOMAS =     F    Thomas Fermi screening in HF
   LMODELHF=     F    short range full HF, long range fraction AEXX
   LFOCKACE=     T    use Adeptively-Compressed-Exchange operator
   ENCUT4O =  -1.0   cutoff for four orbital integrals eV
   LMAXFOCK=     4    L truncation for augmentation on plane wave grid
   LMAXFOCKAE=  -1    L truncation for all-electron charge restoration on plane wave grid
   NMAXFOCKAE=   1    number of basis functions for all-electron charge restoration
   LFOCKAEDFT=     F  apply the AE augmentation even for DFT
   NKREDX  =     1    reduce k-point grid by
   NKREDY  =     1    reduce k-point grid by
   NKREDZ  =     1    reduce k-point grid by
   SHIFTRED=     F    shift reduced grid of Gamma
   HFKIDENT=     F    idential grid for each k-point
   ODDONLY =     F    use only odd q-grid points
   EVENONLY=     F    use only even q-grid points
   HFALPHA =   -1.0000 decay constant for conv. correction
   MCALPHA =    0.0000 extent of test-charge in conv. correction in multipole expansion
   AEXX    =    0.2500 exact exchange contribution
   HFSCREEN=    0.2000 screening length (either q_TF or 0.3 A-1)
   HFSCREENC=   0.2000 screening length for correlation (either q_TF or 0.3 A-1)
   HFRCUT  =    0.0000 spherical cutoff for potential kernel
   ALDAX   =    0.7500 LDA exchange part
   AGGAX   =    0.7500 GGA exchange part
   ALDAC   =    1.0000 LDA correlation
   AGGAC   =    1.0000 GGA correlation
   ENCUTFOCK=  -1.0 apply spherical cutoff to Coloumb kernel
   NBANDSGWLOW=     1    first orbital included in HF term
   NBLOCK_FOCK=    64    blocking factor in FOCK_ACC

 Linear response parameters
   LEPSILON=     F    determine dielectric tensor
   LRPA    =     F    only Hartree local field effects (RPA)
   LNABLA  =     F    use nabla operator in PAW spheres
   LVEL    =     F    velocity operator in full k-point grid
   CSHIFT  =0.1000    complex shift for real part using Kramers Kronig
   OMEGAMAX=  -1.0    maximum frequency
   DEG_THRESHOLD= 0.2000000E-02 threshold for treating states as degnerate
   RTIME   =   -0.100 relaxation time in fs
  (WPLASMAI=    0.000 imaginary part of plasma frequency in eV, 0.658/RTIME)
   DFIELD  = 0.0000000 0.0000000 0.0000000 field for delta impulse in time

  Optional k-point grid parameters
   LKPOINTS_OPT  =     F    use optional k-point grid
   KPOINTS_OPT_MODE=     1    mode for optional k-point grid

 Orbital magnetization related:
   ORBITALMAG=     F  switch on orbital magnetization
   LCHIMAG   =     F  perturbation theory with respect to B field
   DQ        =  0.001000  dq finite difference perturbation B field
   LLRAUG    =     F  two centre corrections for induced B field



--------------------------------------------------------------------------------------------------------


 Static calculation
 charge density and potential will be updated during run
 non collinear spin polarized calculation
 Conjugate gradient for all bands (Freysoldt, et al. PRB 79, 241103 (2009))
 preconditioned conjugated gradient                                        
 perform sub-space diagonalisation
    before iterative eigenvector-optimisation
 modified Broyden-mixing scheme, WC =      100.0
 initial mixing is a Kerker type mixing with AMIX =  0.4000 and BMIX =      1.0000
 Hartree-type preconditioning will be used
 using additional bands          730
 reciprocal scheme for non local part
 use partial core corrections
 no Harris-corrections to forces 
 use gradient corrections 
 use of overlap-Matrix (Vanderbilt PP)
 Gauss-broadening in eV      SIGMA  =   0.05


--------------------------------------------------------------------------------------------------------


  energy-cutoff  :      450.00
  volume of cell :     2241.29
      direct lattice vectors                 reciprocal lattice vectors
    13.086768000  0.000000000  0.000000000     0.076413061  0.000000000  0.000000000
     0.000000000 13.086768000  0.000000000     0.000000000  0.076413061  0.000000000
     0.000000000  0.000000000 13.086768000     0.000000000  0.000000000  0.076413061

  length of vectors
    13.086768000 13.086768000 13.086768000     0.076413061  0.076413061  0.076413061



 k-points in units of 2pi/SCALE and weight: Automatically generated mesh            
   0.00000000  0.00000000  0.00000000       0.125
   0.03820653  0.00000000  0.00000000       0.125
   0.00000000  0.03820653  0.00000000       0.125
   0.03820653  0.03820653  0.00000000       0.125
   0.00000000  0.00000000  0.03820653       0.125
   0.03820653  0.00000000  0.03820653       0.125
   0.00000000  0.03820653  0.03820653       0.125
   0.03820653  0.03820653  0.03820653       0.125

 k-points in reciprocal lattice and weights: Automatically generated mesh            
   0.00000000  0.00000000  0.00000000       0.125
   0.50000000  0.00000000  0.00000000       0.125
   0.00000000  0.50000000  0.00000000       0.125
   0.50000000  0.50000000  0.00000000       0.125
   0.00000000  0.00000000  0.50000000       0.125
   0.50000000  0.00000000  0.50000000       0.125
   0.00000000  0.50000000  0.50000000       0.125
   0.50000000  0.50000000  0.50000000       0.125

 position of ions in fractional coordinates (direct lattice) 
   0.00448500  0.99551500  0.00448500
   0.00124700  0.99875300  0.49695900
   0.00124700  0.50304100  0.00124700
   0.99962500  0.50121800  0.49878200
   0.49695900  0.99875300  0.00124700
   0.49878100  0.00037500  0.49878100
   0.49878100  0.50121900  0.99962500
   0.50052800  0.49947200  0.50052800
   0.00124700  0.25124700  0.25304000
   0.00448600  0.25448500  0.74551500
   0.99962500  0.74878200  0.25121800
   0.00124700  0.74695900  0.74875300
   0.49878200  0.24962500  0.25121900
   0.49696000  0.25124700  0.74875300
   0.50052800  0.75052800  0.24947200
   0.49878100  0.74878100  0.75037500
   0.25121900  0.00037500  0.25121900
   0.25304000  0.99875300  0.74875300
   0.24947200  0.49947200  0.24947200
   0.25121900  0.50121900  0.75037500
   0.74875300  0.99875300  0.25304000
   0.74551400  0.99551500  0.74551500
   0.75037500  0.50121900  0.25121900
   0.74875300  0.50304000  0.74875300
   0.25304000  0.25124700  0.00124700
   0.25121900  0.24962500  0.49878100
   0.25121900  0.74878100  0.99962500
   0.24947200  0.75052800  0.50052800
   0.74551400  0.25448500  0.00448500
   0.74875300  0.25124700  0.49696000
   0.74875300  0.74695900  0.00124700
   0.75037500  0.74878200  0.49878200
   0.87500000  0.12500000  0.87500000
   0.12665600  0.12500000  0.37500000
   0.13277900  0.12500000  0.87500000
   0.12589200  0.62500000  0.37500000
   0.12665600  0.62500000  0.87500000
   0.62334400  0.12500000  0.37500000
   0.61722100  0.12500000  0.87500000
   0.62410800  0.62500000  0.37500000
   0.62334400  0.62500000  0.87500000
   0.12484800  0.37484800  0.12484800
   0.12748800  0.37748800  0.62251200
   0.12748800  0.87251200  0.12748800
   0.12484800  0.87515200  0.62515200
   0.62251200  0.37748800  0.12748800
   0.62515200  0.37484800  0.62515200
   0.62515200  0.87515200  0.12484800
   0.62251200  0.87251200  0.62251200
   0.37500000  0.12500000  0.12665600
   0.37500000  0.12500000  0.62334400
   0.37500000  0.62500000  0.12589200
   0.37500000  0.62500000  0.62410800
   0.87500000  0.12500000  0.13277900
   0.87500000  0.12500000  0.61722100
   0.87500000  0.62500000  0.12665600
   0.87500000  0.62500000  0.62334400
   0.37500000  0.37589200  0.37500000
   0.37500000  0.37665600  0.87500000
   0.37500000  0.87410800  0.37500000
   0.37500000  0.87334400  0.87500000
   0.87500000  0.37665600  0.37500000
   0.87500000  0.38277900  0.87500000
   0.87500000  0.87334400  0.37500000
   0.87500000  0.86722100  0.87500000

 position of ions in cartesian coordinates  (Angst):
   0.05869415 13.02807385  0.05869415
   0.01631920 13.07044880  6.50358714
   0.01631920  6.58318086  0.01631920
  13.08186046  6.55932368  6.52744432
   6.50358714 13.07044880  0.01631920
   6.52743123  0.00490754  6.52743123
   6.52743123  6.55933677 13.08186046
   6.55029381  6.53647419  6.55029381
   0.01631920  3.28801120  3.31147577
   0.05870724  3.33038615  9.75638185
  13.08186046  9.79913632  3.28763168
   0.01631920  9.77527914  9.79875680
   6.52744432  3.26678446  3.28764477
   6.50360023  3.28801120  9.79875680
   6.55029381  9.82198581  3.26478219
   6.52743123  9.79912323  9.81998354
   3.28764477  0.00490754  3.28764477
   3.31147577 13.07044880  9.79875680
   3.26478219  6.53647419  3.26478219
   3.28764477  6.55933677  9.81998354
   9.79875680 13.07044880  3.31147577
   9.75636876 13.02807385  9.75638185
   9.81998354  6.55933677  3.28764477
   9.79875680  6.58316777  9.79875680
   3.31147577  3.28801120  0.01631920
   3.28764477  3.26678446  6.52743123
   3.28764477  9.79912323 13.08186046
   3.26478219  9.82198581  6.55029381
   9.75636876  3.33038615  0.05869415
   9.79875680  3.28801120  6.50360023
   9.79875680  9.77527914  0.01631920
   9.81998354  9.79913632  6.52744432
  11.45092200  1.63584600 11.45092200
   1.65751769  1.63584600  4.90753800
   1.73764797  1.63584600 11.45092200
   1.64751940  8.17923000  4.90753800
   1.65751769  8.17923000 11.45092200
   8.15755831  1.63584600  4.90753800
   8.07742803  1.63584600 11.45092200
   8.16755660  8.17923000  4.90753800
   8.15755831  8.17923000 11.45092200
   1.63385681  4.90554881  1.63385681
   1.66840588  4.94009788  8.14667012
   1.66840588 11.41836212  1.66840588
   1.63385681 11.45291119  8.18121919
   8.14667012  4.94009788  1.66840588
   8.18121919  4.90554881  8.18121919
   8.18121919 11.45291119  1.63385681
   8.14667012 11.41836212  8.14667012
   4.90753800  1.63584600  1.65751769
   4.90753800  1.63584600  8.15755831
   4.90753800  8.17923000  1.64751940
   4.90753800  8.17923000  8.16755660
  11.45092200  1.63584600  1.73764797
  11.45092200  1.63584600  8.07742803
  11.45092200  8.17923000  1.65751769
  11.45092200  8.17923000  8.15755831
   4.90753800  4.91921140  4.90753800
   4.90753800  4.92920969 11.45092200
   4.90753800 11.43924860  4.90753800
   4.90753800 11.42925031 11.45092200
  11.45092200  4.92920969  4.90753800
  11.45092200  5.00933997 11.45092200
  11.45092200 11.42925031  4.90753800
  11.45092200 11.34912003 11.45092200

 Euler angles ALPHA=     0.0000000  BETA=     0.0000000

 transformation matrix from SAXIS to cartesian coordinates
 ---------------------------------------------------------
     1.0000000 m_x    -0.0000000 m_y     0.0000000 m_z
     0.0000000 m_x     1.0000000 m_y     0.0000000 m_z
    -0.0000000 m_x     0.0000000 m_y     1.0000000 m_z

 transformation matrix from cartesian coordinates to SAXIS
 ---------------------------------------------------------
     1.0000000 m_x     0.0000000 m_y    -0.0000000 m_z
    -0.0000000 m_x     1.0000000 m_y     0.0000000 m_z
     0.0000000 m_x     0.0000000 m_y     1.0000000 m_z




--------------------------------------------------------------------------------------------------------


 k-point   1 :   0.0000 0.0000 0.0000  plane waves:   97002
 k-point   2 :   0.5000 0.0000 0.0000  plane waves:   97356
 k-point   3 :   0.0000 0.5000 0.0000  plane waves:   97356
 k-point   4 :   0.5000 0.5000 0.0000  plane waves:   96960
 k-point   5 :   0.0000 0.0000 0.5000  plane waves:   97356
 k-point   6 :   0.5000 0.0000 0.5000  plane waves:   96960
 k-point   7 :   0.0000 0.5000 0.5000  plane waves:   96960
 k-point   8 :   0.5000 0.5000 0.5000  plane waves:   96832

 maximum and minimum number of plane-waves per node :      6146     5998

 maximum number of plane-waves:     97356
 maximum index in each direction: 
   IXMAX=   22   IYMAX=   22   IZMAX=   22
   IXMIN=  -23   IYMIN=  -23   IZMIN=  -23


 parallel 3D FFT for wavefunctions:
    minimum data exchange during FFTs selected (reduces bandwidth)
 parallel 3D FFT for charge:
    minimum data exchange during FFTs selected (reduces bandwidth)


 FFT grid for exact exchange (Hartree Fock) 
  NGX = 48; NGY = 48; NGZ = 48


 Radii for the augmentation spheres in the non-local exchange
 for species   1 augmentation radius   1.444 (default was   1.070)
       energy cutoff for augmentation   1800.0
 for species   2 augmentation radius   1.606 (default was   1.190)
       energy cutoff for augmentation   1800.0

 real space projection operators:
  total allocation   :       9375.20 KBytes
  max/ min on nodes  :        615.43        566.80

 Maximum index for augmentation-charges in exchange           97
  SETUP_FOCK is finished

 total amount of memory used by VASP MPI-rank0    76680. kBytes
=======================================================================

   base      :      30000. kBytes
   nonl-proj :      10272. kBytes
   fftplans  :       8138. kBytes
   grid      :      15925. kBytes
   one-center:        311. kBytes
   HF        :        129. kBytes
   nonlr-proj:       1684. kBytes
   wavefun   :      10221. kBytes

     INWAV:  cpu time      0.0000: real time      0.0000
 Broyden mixing: mesh for mixing (old mesh)
   NGX = 45   NGY = 45   NGZ = 45
  (NGX  =192   NGY  =192   NGZ  =192)
  gives a total of  91125 points

 initial charge density was supplied:
 charge density of overlapping atoms calculated
 number of electron     588.0000000 magnetization      65.0000000     65.0000000     65.0000000
 keeping initial charge density in first step


--------------------------------------------------------------------------------------------------------


 Maximum index for augmentation-charges         3093 (set IRDMAX)


--------------------------------------------------------------------------------------------------------


 First call to EWALD:  gamma=   0.135
 Maximum number of real-space cells 3x 3x 3
 Maximum number of reciprocal cells 3x 3x 3

    FEWALD:  cpu time      0.0061: real time      0.0061


--------------------------------------- Iteration      1(   1)  ---------------------------------------


    POTLOK:  cpu time      7.0961: real time      7.0988
    SETDIJ:  cpu time      2.0695: real time      2.0700
    TRIAL :  cpu time    338.4987: real time    339.5175
    CORREC:  cpu time      0.0031: real time      0.0031
    --------------------------------------------
      LOOP:  cpu time    347.7994: real time    348.8218

 eigenvalue-minimisations  : 16384
 total energy-change (2. order) :-0.6598610E+05  (-0.2798882E+05)
 number of electron     588.0000000 magnetization      65.0000000     65.0000000     65.0000000
 augmentation part      588.0000000 magnetization      65.0000000     65.0000000     65.0000000

 Free energy of the ion-electron system (eV)
  ---------------------------------------------------
  alpha Z        PSCENC =      1642.45118531
  Ewald energy   TEWEN  =    -33940.17512420
  -Hartree energ DENC   =    -17077.89199325
  -exchange      EXHF   =         0.00000000
  -V(xc)+E(xc)   XCENC  =      -705.19542617
  PAW double counting   =     46123.44547363  -111597.00895026
  entropy T*S    EENTRO =        -0.02217518
  eigenvalues    EBANDS =      -181.12847407
  atomic energy  EATOM  =     49749.42546356
  ---------------------------------------------------
  free energy    TOTEN  =    -65986.10002063 eV

  energy without entropy =   -65986.07784546  energy(sigma->0) =   -65986.08893305
  exchange ACFDT corr.  =         0.00000000  see jH, gK, PRB 81, 115126


--------------------------------------------------------------------------------------------------------




--------------------------------------- Iteration      1(   2)  ---------------------------------------


    TRIAL :  cpu time     36.3038: real time     36.3170
    CORREC:  cpu time      0.0028: real time      0.0028
    --------------------------------------------
      LOOP:  cpu time     36.3200: real time     36.3697

 eigenvalue-minimisations  : 18432
 total energy-change (2. order) :-0.3313316E+04  (-0.3232857E+04)
 number of electron     588.0000000 magnetization      65.0000000     65.0000000     65.0000000
 augmentation part      588.0000000 magnetization      65.0000000     65.0000000     65.0000000

 Free energy of the ion-electron system (eV)
  ---------------------------------------------------
  alpha Z        PSCENC =      1642.45118531
  Ewald energy   TEWEN  =    -33940.17512420
  -Hartree energ DENC   =    -17077.89199325
  -exchange      EXHF   =         0.00000000
  -V(xc)+E(xc)   XCENC  =      -705.19542617
  PAW double counting   =     46123.44547363  -111597.00895026
  entropy T*S    EENTRO =        -0.00731037
  eigenvalues    EBANDS =     -3494.45976098
  atomic energy  EATOM  =     49749.42546356
  ---------------------------------------------------
  free energy    TOTEN  =    -69299.41644273 eV

  energy without entropy =   -69299.40913236  energy(sigma->0) =   -69299.41278755
  exchange ACFDT corr.  =         0.00000000  see jH, gK, PRB 81, 115126


--------------------------------------------------------------------------------------------------------




--------------------------------------- Iteration      1(   3)  ---------------------------------------


    TRIAL :  cpu time     61.6891: real time     61.7090
    CORREC:  cpu time      0.0052: real time      0.0052
    --------------------------------------------
      LOOP:  cpu time     61.7078: real time     61.7652

 eigenvalue-minimisations  : 20480
 total energy-change (2. order) :-0.1518739E+03  (-0.1511815E+03)
 number of electron     588.0000000 magnetization      65.0000000     65.0000000     65.0000000
 augmentation part      588.0000000 magnetization      65.0000000     65.0000000     65.0000000

 Free energy of the ion-electron system (eV)
  ---------------------------------------------------
  alpha Z        PSCENC =      1642.45118531
  Ewald energy   TEWEN  =    -33940.17512420
  -Hartree energ DENC   =    -17077.89199325
  -exchange      EXHF   =         0.00000000
  -V(xc)+E(xc)   XCENC  =      -705.19542617
  PAW double counting   =     46123.44547363  -111597.00895026
  entropy T*S    EENTRO =        -0.01484434
  eigenvalues    EBANDS =     -3646.32612928
  atomic energy  EATOM  =     49749.42546356
  ---------------------------------------------------
  free energy    TOTEN  =    -69451.29034501 eV

  energy without entropy =   -69451.27550067  energy(sigma->0) =   -69451.28292284
  exchange ACFDT corr.  =         0.00000000  see jH, gK, PRB 81, 115126


--------------------------------------------------------------------------------------------------------




--------------------------------------- Iteration      1(   4)  ---------------------------------------


    TRIAL :  cpu time     59.9591: real time     59.9806
    CORREC:  cpu time      0.0055: real time      0.0055
    --------------------------------------------
      LOOP:  cpu time     59.9788: real time     60.0367

 eigenvalue-minimisations  : 22784
 total energy-change (2. order) :-0.3744585E+01  (-0.3742823E+01)
 number of electron     588.0000000 magnetization      65.0000000     65.0000000     65.0000000
 augmentation part      588.0000000 magnetization      65.0000000     65.0000000     65.0000000

 Free energy of the ion-electron system (eV)
  ---------------------------------------------------
  alpha Z        PSCENC =      1642.45118531
  Ewald energy   TEWEN  =    -33940.17512420
  -Hartree energ DENC   =    -17077.89199325
  -exchange      EXHF   =         0.00000000
  -V(xc)+E(xc)   XCENC  =      -705.19542617
  PAW double counting   =     46123.44547363  -111597.00895026
  entropy T*S    EENTRO =        -0.01432490
  eigenvalues    EBANDS =     -3650.07123332
  atomic energy  EATOM  =     49749.42546356
  ---------------------------------------------------
  free energy    TOTEN  =    -69455.03492961 eV

  energy without entropy =   -69455.02060470  energy(sigma->0) =   -69455.02776715
  exchange ACFDT corr.  =         0.00000000  see jH, gK, PRB 81, 115126


--------------------------------------------------------------------------------------------------------




--------------------------------------- Iteration      1(   5)  ---------------------------------------


    POTLOK:  cpu time      7.3529: real time      7.3553
    SETDIJ:  cpu time      2.1580: real time      2.1585
    TRIAL :  cpu time    163.9056: real time    164.0086
    CORREC:  cpu time      0.0065: real time      0.0065
    CHARGE:  cpu time      1.9274: real time      1.9308
    --------------------------------------------
      LOOP:  cpu time    175.3658: real time    175.5115

 eigenvalue-minimisations  : 16384
 total energy-change (2. order) : 0.6927792E+05  (-0.3469683E+02)
 number of electron     588.0000006 magnetization       0.1781534      0.1781546      0.1781553
 augmentation part      151.7931428 magnetization       0.4999089      0.4998919      0.4999498

 Free energy of the ion-electron system (eV)
  ---------------------------------------------------
  alpha Z        PSCENC =      1642.45118531
  Ewald energy   TEWEN  =    -33940.17512420
  -Hartree energ DENC   =    -17077.89199325
  -exchange      EXHF   =      1182.00636373
  -V(xc)+E(xc)   XCENC  =      -617.56595420
  PAW double counting   =     46020.13618676   -43994.38451641
  entropy T*S    EENTRO =        -0.00646117
  eigenvalues    EBANDS =     -3141.10990926
  atomic energy  EATOM  =     49749.42546356
  ---------------------------------------------------
  free energy    TOTEN  =      -177.11475913 eV

  energy without entropy =     -177.10829796  energy(sigma->0) =     -177.11152855
  exchange ACFDT corr.  =        -0.02546585  see jH, gK, PRB 81, 115126


--------------------------------------------------------------------------------------------------------




--------------------------------------- Iteration      1(   6)  ---------------------------------------


    POTLOK:  cpu time      6.8148: real time      6.8167
    SETDIJ:  cpu time      3.9545: real time      3.9557
    TRIAL :  cpu time    144.7045: real time    144.7699
    CORREC:  cpu time    155.0516: real time    155.1217
    EDDIAG:  cpu time    142.7381: real time    142.8030
    CHARGE:  cpu time      1.9245: real time      1.9259
    --------------------------------------------
      LOOP:  cpu time    455.2210: real time    455.4500

 eigenvalue-minimisations  :     0
 total energy-change (2. order) :-0.6892320E+01  (-0.9813036E+01)
 number of electron     588.0000006 magnetization       0.1200788      0.1200751      0.1200871
 augmentation part      154.8292908 magnetization       0.1963710      0.1962144      0.1963848

 Free energy of the ion-electron system (eV)
  ---------------------------------------------------
  alpha Z        PSCENC =      1642.45118531
  Ewald energy   TEWEN  =    -33940.17512420
  -Hartree energ DENC   =    -16876.87175540
  -exchange      EXHF   =      1143.93960016
  -V(xc)+E(xc)   XCENC  =      -625.18173154
  PAW double counting   =    111633.04296166  -109555.25815492
  entropy T*S    EENTRO =        -0.00661591
  eigenvalues    EBANDS =     -3360.24900158
  atomic energy  EATOM  =     49749.42546356
  ---------------------------------------------------
  free energy    TOTEN  =      -184.00707949 eV

  energy without entropy =     -184.00046358  energy(sigma->0) =     -184.00377154
  exchange ACFDT corr.  =        -0.01391319  see jH, gK, PRB 81, 115126


--------------------------------------------------------------------------------------------------------


  average scaling for gradient   0.9818


 average (electrostatic) potential at core
  the test charge radii are     1.0698  1.1897
  (the norm of the test charge is              1.0000)
       1 -33.1718       2 -32.9308       3 -32.9303       4 -32.9795       5 -32.9306
       6 -32.9795       7 -32.9794       8 -32.9531       9 -32.9306      10 -33.1718
      11 -32.9790      12 -32.9307      13 -32.9793      14 -32.9303      15 -32.9537
      16 -32.9790      17 -32.9791      18 -32.9302      19 -32.9533      20 -32.9793
      21 -32.9303      22 -33.1722      23 -32.9791      24 -32.9305      25 -32.9303
      26 -32.9792      27 -32.9793      28 -32.9538      29 -33.1719      30 -32.9308
      31 -32.9303      32 -32.9794      33 -32.4146      34 -86.6908      35 -86.6587
      36 -86.6815      37 -86.6912      38 -86.6914      39 -86.6587      40 -86.6816
      41 -86.6911      42 -86.6631      43 -86.8164      44 -86.8169      45 -86.6623
      46 -86.8166      47 -86.6628      48 -86.6631      49 -86.8166      50 -86.6910
      51 -86.6907      52 -86.6814      53 -86.6813      54 -86.6587      55 -86.6587
      56 -86.6916      57 -86.6911      58 -86.6811      59 -86.6909      60 -86.6812
      61 -86.6916      62 -86.6911      63 -86.6583      64 -86.6912      65 -86.6589



 E-fermi :   3.3379     XC(G=0):  -7.0373     alpha+bet : -7.2837

 Fermi energy:         3.3378938659

 k-point     1 :       0.0000    0.0000    0.0000
  band No.  band energies     occupation 
      1     -10.0389      1.00000
      2     -10.0053      1.00000
      3      -9.8828      1.00000
      4      -9.8826      1.00000
      5      -9.8822      1.00000
      6      -9.8441      1.00000
      7      -9.8438      1.00000
      8      -9.8434      1.00000
      9      -9.8277      1.00000
     10      -9.8277      1.00000
     11      -9.8076      1.00000
     12      -9.7904      1.00000
     13      -9.7888      1.00000
     14      -9.7888      1.00000
     15      -9.7690      1.00000
     16      -9.7682      1.00000
     17      -9.7674      1.00000
     18      -9.7661      1.00000
     19      -9.7605      1.00000
     20      -9.7583      1.00000
     21      -9.7551      1.00000
     22      -9.7523      1.00000
     23      -9.7501      1.00000
     24      -9.7437      1.00000
     25      -9.7398      1.00000
     26      -9.7364      1.00000
     27      -9.7361      1.00000
     28      -9.7337      1.00000
     29      -9.7272      1.00000
     30      -9.7250      1.00000
     31      -9.7243      1.00000
     32      -9.7141      1.00000
     33      -9.7110      1.00000
     34      -9.7064      1.00000
     35      -9.7036      1.00000
     36      -9.7009      1.00000
     37      -9.6989      1.00000
     38      -9.6941      1.00000
     39      -9.6921      1.00000
     40      -9.6921      1.00000
     41      -9.6851      1.00000
     42      -9.6813      1.00000
     43      -9.6806      1.00000
     44      -9.6760      1.00000
     45      -9.6758      1.00000
     46      -9.6709      1.00000
     47      -9.6705      1.00000
     48      -9.6702      1.00000
     49      -9.6633      1.00000
     50      -9.6620      1.00000
     51      -9.6615      1.00000
     52      -9.6491      1.00000
     53      -9.6490      1.00000
     54      -9.6423      1.00000
     55      -9.6384      1.00000
     56      -9.6292      1.00000
     57      -9.6292      1.00000
     58      -9.6175      1.00000
     59      -9.6119      1.00000
     60      -9.6103      1.00000
     61      -9.6089      1.00000
     62      -9.5909      1.00000
     63      -9.5893      1.00000
     64      -9.5879      1.00000
     65      -8.5859      1.00000
     66      -8.5831      1.00000
     67      -8.5817      1.00000
     68      -8.5782      1.00000
     69      -8.5615      1.00000
     70      -8.5576      1.00000
     71      -8.5569      1.00000
     72      -8.5506      1.00000
     73      -8.5311      1.00000
     74      -8.5304      1.00000
     75      -8.5295      1.00000
     76      -8.5292      1.00000
     77      -8.4589      1.00000
     78      -8.4580      1.00000
     79      -8.4568      1.00000
     80      -8.4563      1.00000
     81      -8.4181      1.00000
     82      -8.4157      1.00000
     83      -8.4156      1.00000
     84      -8.4132      1.00000
     85      -8.4041      1.00000
     86      -8.4033      1.00000
     87      -8.4020      1.00000
     88      -8.4012      1.00000
     89      -8.3957      1.00000
     90      -8.3949      1.00000
     91      -8.3904      1.00000
     92      -8.3903      1.00000
     93      -8.3887      1.00000
     94      -8.3881      1.00000
     95      -8.3874      1.00000
     96      -8.3873      1.00000
     97      -8.3865      1.00000
     98      -8.3864      1.00000
     99      -8.3857      1.00000
    100      -8.3850      1.00000
    101      -8.3802      1.00000
    102      -8.3797      1.00000
    103      -8.3795      1.00000
    104      -8.3789      1.00000
    105      -8.3761      1.00000
    106      -8.3750      1.00000
    107      -8.3729      1.00000
    108      -8.3729      1.00000
    109      -8.3716      1.00000
    110      -8.3716      1.00000
    111      -8.3711      1.00000
    112      -8.3710      1.00000
    113      -8.3621      1.00000
    114      -8.3600      1.00000
    115      -8.3597      1.00000
    116      -8.3596      1.00000
    117      -8.3593      1.00000
    118      -8.3593      1.00000
    119      -8.3545      1.00000
    120      -8.3524      1.00000
    121      -8.3493      1.00000
    122      -8.3492      1.00000
    123      -8.3478      1.00000
    124      -8.3478      1.00000
    125      -8.3334      1.00000
    126      -8.3334      1.00000
    127      -8.3311      1.00000
    128      -8.3311      1.00000
    129      -8.3198      1.00000
    130      -8.3175      1.00000
    131      -8.3019      1.00000
    132      -8.3015      1.00000
    133      -8.3009      1.00000
    134      -8.3006      1.00000
    135      -8.2895      1.00000
    136      -8.2891      1.00000
    137      -8.2889      1.00000
    138      -8.2881      1.00000
    139      -8.2878      1.00000
    140      -8.2875      1.00000
    141      -8.2715      1.00000
    142      -8.2714      1.00000
    143      -8.2711      1.00000
    144      -8.2707      1.00000
    145      -8.2705      1.00000
    146      -8.2703      1.00000
    147      -8.2691      1.00000
    148      -8.2683      1.00000
    149      -8.2514      1.00000
    150      -8.2511      1.00000
    151      -8.2510      1.00000
    152      -8.2509      1.00000
    153      -8.2504      1.00000
    154      -8.2486      1.00000
    155      -8.2457      1.00000
    156      -8.2457      1.00000
    157      -8.2449      1.00000
    158      -8.2449      1.00000
    159      -8.2403      1.00000
    160      -8.2403      1.00000
    161      -8.1582      1.00000
    162      -8.1570      1.00000
    163      -8.1441      1.00000
    164      -8.1433      1.00000
    165      -8.1418      1.00000
    166      -8.1411      1.00000
    167      -8.1339      1.00000
    168      -8.1323      1.00000
    169      -8.1309      1.00000
    170      -8.1306      1.00000
    171      -8.1299      1.00000
    172      -8.1285      1.00000
    173      -8.0704      1.00000
    174      -8.0690      1.00000
    175      -8.0536      1.00000
    176      -8.0523      1.00000
    177      -8.0506      1.00000
    178      -8.0505      1.00000
    179      -8.0494      1.00000
    180      -8.0493      1.00000
    181      -8.0403      1.00000
    182      -8.0400      1.00000
    183      -8.0391      1.00000
    184      -8.0389      1.00000
    185      -8.0100      1.00000
    186      -8.0088      1.00000
    187      -7.9941      1.00000
    188      -7.9925      1.00000
    189      -7.9919      1.00000
    190      -7.9902      1.00000
    191      -7.9527      1.00000
    192      -7.9525      1.00000
    193      -7.9523      1.00000
    194      -7.9522      1.00000
    195      -7.9362      1.00000
    196      -7.9354      1.00000
    197      -7.8979      1.00000
    198      -7.8952      1.00000
    199      -7.8754      1.00000
    200      -7.8711      1.00000
    201      -7.8410      1.00000
    202      -7.8405      1.00000
    203      -7.8395      1.00000
    204      -7.8393      1.00000
    205      -7.8173      1.00000
    206      -7.8164      1.00000
    207      -7.7913      1.00000
    208      -7.7887      1.00000
    209      -7.7740      1.00000
    210      -7.7738      1.00000
    211      -7.7729      1.00000
    212      -7.7729      1.00000
    213      -7.7518      1.00000
    214      -7.7497      1.00000
    215      -7.7467      1.00000
    216      -7.7466      1.00000
    217      -7.7439      1.00000
    218      -7.7439      1.00000
    219      -7.7207      1.00000
    220      -7.7203      1.00000
    221      -7.7199      1.00000
    222      -7.7196      1.00000
    223      -7.7186      1.00000
    224      -7.7166      1.00000
    225      -7.7101      1.00000
    226      -7.7100      1.00000
    227      -7.7094      1.00000
    228      -7.7093      1.00000
    229      -7.7089      1.00000
    230      -7.7074      1.00000
    231      -7.6914      1.00000
    232      -7.6913      1.00000
    233      -7.6910      1.00000
    234      -7.6910      1.00000
    235      -7.6838      1.00000
    236      -7.6832      1.00000
    237      -7.6805      1.00000
    238      -7.6800      1.00000
    239      -7.6786      1.00000
    240      -7.6786      1.00000
    241      -7.6767      1.00000
    242      -7.6761      1.00000
    243      -7.6742      1.00000
    244      -7.6741      1.00000
    245      -7.6723      1.00000
    246      -7.6720      1.00000
    247      -7.6713      1.00000
    248      -7.6711      1.00000
    249      -7.6673      1.00000
    250      -7.6671      1.00000
    251      -7.6667      1.00000
    252      -7.6666      1.00000
    253      -7.6664      1.00000
    254      -7.6661      1.00000
    255      -7.6590      1.00000
    256      -7.6579      1.00000
    257      -7.6567      1.00000
    258      -7.6566      1.00000
    259      -7.6559      1.00000
    260      -7.6558      1.00000
    261      -7.6541      1.00000
    262      -7.6531      1.00000
    263      -7.6517      1.00000
    264      -7.6507      1.00000
    265      -7.6391      1.00000
    266      -7.6373      1.00000
    267      -7.6338      1.00000
    268      -7.6337      1.00000
    269      -7.6336      1.00000
    270      -7.6328      1.00000
    271      -7.6327      1.00000
    272      -7.6322      1.00000
    273      -7.6281      1.00000
    274      -7.6280      1.00000
    275      -7.6260      1.00000
    276      -7.6259      1.00000
    277      -7.6258      1.00000
    278      -7.6243      1.00000
    279      -7.6109      1.00000
    280      -7.6108      1.00000
    281      -7.6098      1.00000
    282      -7.6097      1.00000
    283      -7.6086      1.00000
    284      -7.6074      1.00000
    285      -7.6035      1.00000
    286      -7.6032      1.00000
    287      -7.6032      1.00000
    288      -7.6031      1.00000
    289      -7.6001      1.00000
    290      -7.5981      1.00000
    291      -7.5956      1.00000
    292      -7.5956      1.00000
    293      -7.5952      1.00000
    294      -7.5951      1.00000
    295      -7.5909      1.00000
    296      -7.5906      1.00000
    297      -7.5893      1.00000
    298      -7.5889      1.00000
    299      -7.5884      1.00000
    300      -7.5872      1.00000
    301      -7.5868      1.00000
    302      -7.5867      1.00000
    303      -7.5821      1.00000
    304      -7.5814      1.00000
    305      -7.5803      1.00000
    306      -7.5795      1.00000
    307      -7.5764      1.00000
    308      -7.5754      1.00000
    309      -7.5743      1.00000
    310      -7.5738      1.00000
    311      -7.5734      1.00000
    312      -7.5716      1.00000
    313      -7.5705      1.00000
    314      -7.5702      1.00000
    315      -7.5702      1.00000
    316      -7.5691      1.00000
    317      -7.5688      1.00000
    318      -7.5682      1.00000
    319      -7.5673      1.00000
    320      -7.5665      1.00000
    321      -7.5655      1.00000
    322      -7.5650      1.00000
    323      -7.5376      1.00000
    324      -7.5349      1.00000
    325      -7.5329      1.00000
    326      -7.5297      1.00000
    327      -7.5103      1.00000
    328      -7.5066      1.00000
    329      -7.5053      1.00000
    330      -7.5041      1.00000
    331      -7.5036      1.00000
    332      -7.5026      1.00000
    333      -7.5015      1.00000
    334      -7.5011      1.00000
    335      -7.4960      1.00000
    336      -7.4936      1.00000
    337      -7.4924      1.00000
    338      -7.4902      1.00000
    339      -7.3817      1.00000
    340      -7.3787      1.00000
    341      -7.3454      1.00000
    342      -7.3435      1.00000
    343      -7.3406      1.00000
    344      -7.3390      1.00000
    345      -7.3231      1.00000
    346      -7.3182      1.00000
    347      -7.3169      1.00000
    348      -7.3161      1.00000
    349      -7.3139      1.00000
    350      -7.3132      1.00000
    351      -7.2676      1.00000
    352      -7.2662      1.00000
    353      -7.2600      1.00000
    354      -7.2586      1.00000
    355      -7.2126      1.00000
    356      -7.2018      1.00000
    357      -7.2009      1.00000
    358      -7.1964      1.00000
    359      -7.1815      1.00000
    360      -7.1793      1.00000
    361      -7.1788      1.00000
    362      -7.1749      1.00000
    363      -7.1736      1.00000
    364      -7.1715      1.00000
    365      -7.1704      1.00000
    366      -7.1694      1.00000
    367      -7.1692      1.00000
    368      -7.1671      1.00000
    369      -7.1651      1.00000
    370      -7.1602      1.00000
    371      -7.0494      1.00000
    372      -7.0472      1.00000
    373      -7.0423      1.00000
    374      -7.0407      1.00000
    375      -7.0339      1.00000
    376      -7.0331      1.00000
    377      -7.0125      1.00000
    378      -7.0062      1.00000
    379      -7.0030      1.00000
    380      -6.9969      1.00000
    381      -6.9946      1.00000
    382      -6.9942      1.00000
    383      -6.9497      1.00000
    384      -6.9486      1.00000
    385      -6.9480      1.00000
    386      -6.9451      1.00000
    387      -6.9327      1.00000
    388      -6.9326      1.00000
    389      -6.8389      1.00000
    390      -6.8346      1.00000
    391      -6.8215      1.00000
    392      -6.8174      1.00000
    393      -6.8073      1.00000
    394      -6.8062      1.00000
    395      -3.2969      1.00000
    396      -3.2883      1.00000
    397      -2.8427      1.00000
    398      -2.8414      1.00000
    399      -2.8399      1.00000
    400      -2.8204      1.00000
    401      -2.8190      1.00000
    402      -2.8179      1.00000
    403      -2.7664      1.00000
    404      -2.7651      1.00000
    405      -2.7638      1.00000
    406      -2.7441      1.00000
    407      -2.7423      1.00000
    408      -2.7408      1.00000
    409      -2.7151      1.00000
    410      -2.7108      1.00000
    411      -2.7071      1.00000
    412      -2.6997      1.00000
    413      -2.6945      1.00000
    414      -2.6935      1.00000
    415      -2.4801      1.00000
    416      -2.4796      1.00000
    417      -2.4787      1.00000
    418      -2.4657      1.00000
    419      -2.4652      1.00000
    420      -2.4649      1.00000
    421      -2.4297      1.00000
    422      -2.4212      1.00000
    423      -2.1765      1.00000
    424      -2.1764      1.00000
    425      -2.1763      1.00000
    426      -2.1729      1.00000
    427      -2.1702      1.00000
    428      -2.1676      1.00000
    429      -2.1630      1.00000
    430      -2.1590      1.00000
    431      -2.1575      1.00000
    432      -2.1535      1.00000
    433      -2.0802      1.00000
    434      -2.0750      1.00000
    435      -1.9903      1.00000
    436      -1.9897      1.00000
    437      -1.9886      1.00000
    438      -1.9862      1.00000
    439      -1.9823      1.00000
    440      -1.9807      1.00000
    441      -1.9793      1.00000
    442      -1.9775      1.00000
    443      -1.9730      1.00000
    444      -1.9723      1.00000
    445      -1.1679      1.00000
    446      -1.1645      1.00000
    447      -0.9783      1.00000
    448      -0.9776      1.00000
    449      -0.9771      1.00000
    450      -0.9759      1.00000
    451      -0.9726      1.00000
    452      -0.9725      1.00000
    453      -0.9597      1.00000
    454      -0.9595      1.00000
    455      -0.9590      1.00000
    456      -0.9589      1.00000
    457      -0.9222      1.00000
    458      -0.9221      1.00000
    459      -0.8908      1.00000
    460      -0.8888      1.00000
    461      -0.8857      1.00000
    462      -0.8836      1.00000
    463      -0.7645      1.00000
    464      -0.7627      1.00000
    465      -0.6172      1.00000
    466      -0.6127      1.00000
    467      -0.5593      1.00000
    468      -0.5589      1.00000
    469      -0.5570      1.00000
    470      -0.5570      1.00000
    471      -0.5185      1.00000
    472      -0.5167      1.00000
    473      -0.5148      1.00000
    474      -0.5130      1.00000
    475      -0.4757      1.00000
    476      -0.4754      1.00000
    477      -0.4671      1.00000
    478      -0.4631      1.00000
    479      -0.4466      1.00000
    480      -0.4451      1.00000
    481      -0.4418      1.00000
    482      -0.4410      1.00000
    483      -0.3817      1.00000
    484      -0.3816      1.00000
    485      -0.3757      1.00000
    486      -0.3757      1.00000
    487      -0.3499      1.00000
    488      -0.3486      1.00000
    489      -0.3475      1.00000
    490      -0.3455      1.00000
    491      -0.3360      1.00000
    492      -0.3344      1.00000
    493      -0.2991      1.00000
    494      -0.2990      1.00000
    495      -0.2966      1.00000
    496      -0.2962      1.00000
    497      -0.2870      1.00000
    498      -0.2818      1.00000
    499      -0.2693      1.00000
    500      -0.2669      1.00000
    501      -0.2562      1.00000
    502      -0.2555      1.00000
    503      -0.2535      1.00000
    504      -0.2528      1.00000
    505      -0.2351      1.00000
    506      -0.2342      1.00000
    507      -0.2337      1.00000
    508      -0.2282      1.00000
    509      -0.2249      1.00000
    510      -0.2243      1.00000
    511       0.0578      1.00000
    512       0.0586      1.00000
    513       0.0638      1.00000
    514       0.0655      1.00000
    515       0.1063      1.00000
    516       0.1112      1.00000
    517       0.5040      1.00000
    518       0.5144      1.00000
    519       0.5416      1.00000
    520       0.5472      1.00000
    521       0.5506      1.00000
    522       0.5610      1.00000
    523       0.5647      1.00000
    524       0.5665      1.00000
    525       0.5767      1.00000
    526       0.5775      1.00000
    527       0.5879      1.00000
    528       0.5880      1.00000
    529       0.7842      1.00000
    530       0.7971      1.00000
    531       0.8058      1.00000
    532       0.8111      1.00000
    533       0.8192      1.00000
    534       0.8230      1.00000
    535       0.8256      1.00000
    536       0.8376      1.00000
    537       0.8993      1.00000
    538       0.9006      1.00000
    539       0.9052      1.00000
    540       0.9104      1.00000
    541       0.9119      1.00000
    542       0.9123      1.00000
    543       0.9215      1.00000
    544       0.9279      1.00000
    545       0.9348      1.00000
    546       0.9354      1.00000
    547       0.9649      1.00000
    548       0.9740      1.00000
    549       1.0250      1.00000
    550       1.0273      1.00000
    551       1.0309      1.00000
    552       1.0425      1.00000
    553       1.0447      1.00000
    554       1.0458      1.00000
    555       1.0463      1.00000
    556       1.0598      1.00000
    557       1.0605      1.00000
    558       1.0635      1.00000
    559       1.0637      1.00000
    560       1.0666      1.00000
    561       1.0673      1.00000
    562       1.0724      1.00000
    563       1.0729      1.00000
    564       1.0822      1.00000
    565       1.0836      1.00000
    566       1.0838      1.00000
    567       1.0854      1.00000
    568       1.0988      1.00000
    569       1.1023      1.00000
    570       1.1040      1.00000
    571       1.1208      1.00000
    572       1.1209      1.00000
    573       1.3055      1.00000
    574       1.3100      1.00000
    575       1.3222      1.00000
    576       1.3246      1.00000
    577       1.3246      1.00000
    578       1.3328      1.00000
    579       1.3424      1.00000
    580       1.3497      1.00000
    581       1.3567      1.00000
    582       1.3664      1.00000
    583       2.1340      1.00000
    584       2.1549      1.00000
    585       2.1749      1.00000
    586       2.1936      1.00000
    587       2.6409      1.00000
    588       2.6868      1.00000
    589       3.5355      0.66614
    590       3.5428      0.00000
    591       4.1365      0.00000
    592       4.1380      0.00000
    593       4.1396      0.00000
    594       4.1597      0.00000
    595       4.1614      0.00000
    596       4.1628      0.00000
    597       4.2568      0.00000
    598       4.2806      0.00000
    599       4.9559      0.00000
    600       4.9568      0.00000
    601       4.9942      0.00000
    602       5.0104      0.00000
    603       5.1063      0.00000
    604       5.1178      0.00000
    605       5.1293      0.00000
    606       5.1335      0.00000
    607       5.1448      0.00000
    608       5.1638      0.00000
    609       5.2725      0.00000
    610       5.2736      0.00000
    611       5.2741      0.00000
    612       5.3297      0.00000
    613       5.3353      0.00000
    614       5.3477      0.00000
    615       5.4649      0.00000
    616       5.4734      0.00000
    617       5.4861      0.00000
    618       5.5182      0.00000
    619       5.5276      0.00000
    620       5.5276      0.00000
    621       5.5300      0.00000
    622       5.5351      0.00000
    623       5.5353      0.00000
    624       5.5465      0.00000
    625       5.5498      0.00000
    626       5.5564      0.00000
    627       5.5679      0.00000
    628       5.5684      0.00000
    629       5.5724      0.00000
    630       5.5792      0.00000
    631       5.5801      0.00000
    632       5.5812      0.00000
    633       5.5870      0.00000
    634       5.5933      0.00000
    635       5.5934      0.00000
    636       5.5937      0.00000
    637       5.6060      0.00000
    638       5.6489      0.00000
    639       5.6591      0.00000
    640       5.6602      0.00000
    641       5.6659      0.00000
    642       5.6695      0.00000
    643       5.6751      0.00000
    644       5.7040      0.00000
    645       5.7072      0.00000
    646       5.7112      0.00000
    647       5.7143      0.00000
    648       5.7181      0.00000
    649       5.7281      0.00000
    650       5.7379      0.00000
    651       5.7395      0.00000
    652       5.7444      0.00000
    653       5.7487      0.00000
    654       5.7501      0.00000
    655       5.7658      0.00000
    656       5.7661      0.00000
    657       6.4422      0.00000
    658       6.5831      0.00000
    659       6.6674      0.00000
[...]
 l=   3
     0.0000000     0.0000000     0.0000000     0.0000000     0.0000000     0.0000000     0.0000000
     0.0000000     0.0000000     0.0000000     0.0000000     0.0000000     0.0000000     0.0000000
     0.0000000     0.0000000     0.0000000     0.0000000     0.0000000     0.0000000     0.0000000
     0.0000000     0.0000000     0.0000000     0.0000000     0.0000000     0.0000000     0.0000000
     0.0000000     0.0000000     0.0000000     0.0000000     0.0000000     0.0000000     0.0000000
     0.0000000     0.0000000     0.0000000     0.0000000     0.0000000     0.0000000     0.0000000
     0.0000000     0.0000000     0.0000000     0.0000000     0.0000000     0.0000000     0.0000000

 Ion:   61  E_soc:     -0.1849486
 l=   1
     0.0000000    -0.0307352    -0.0307986
    -0.0307352     0.0000000    -0.0307516
    -0.0307986    -0.0307516     0.0000000
 l=   2
    -0.0000000    -0.0000286     0.0000000    -0.0000281    -0.0000360
    -0.0000286    -0.0000000    -0.0000256    -0.0000288    -0.0000085
     0.0000000    -0.0000256     0.0000000    -0.0000250     0.0000000
    -0.0000281    -0.0000288    -0.0000250    -0.0000000    -0.0000083
    -0.0000360    -0.0000085     0.0000000    -0.0000083    -0.0000000
 l=   3
     0.0000000     0.0000000     0.0000000     0.0000000     0.0000000     0.0000000     0.0000000
     0.0000000     0.0000000     0.0000000     0.0000000     0.0000000     0.0000000     0.0000000
     0.0000000     0.0000000     0.0000000     0.0000000     0.0000000     0.0000000     0.0000000
     0.0000000     0.0000000     0.0000000     0.0000000     0.0000000     0.0000000     0.0000000
     0.0000000     0.0000000     0.0000000     0.0000000     0.0000000     0.0000000     0.0000000
     0.0000000     0.0000000     0.0000000     0.0000000     0.0000000     0.0000000     0.0000000
     0.0000000     0.0000000     0.0000000     0.0000000     0.0000000     0.0000000     0.0000000

 Ion:   62  E_soc:     -0.1849463
 l=   1
     0.0000000    -0.0307995    -0.0307374
    -0.0307995     0.0000000    -0.0307480
    -0.0307374    -0.0307480     0.0000000
 l=   2
    -0.0000000    -0.0000286     0.0000000    -0.0000288    -0.0000339
    -0.0000286    -0.0000000    -0.0000266    -0.0000278    -0.0000094
     0.0000000    -0.0000266     0.0000000    -0.0000248     0.0000000
    -0.0000288    -0.0000278    -0.0000248    -0.0000000    -0.0000084
    -0.0000339    -0.0000094     0.0000000    -0.0000084    -0.0000000
 l=   3
     0.0000000     0.0000000     0.0000000     0.0000000     0.0000000     0.0000000     0.0000000
     0.0000000     0.0000000     0.0000000     0.0000000     0.0000000     0.0000000     0.0000000
     0.0000000     0.0000000     0.0000000     0.0000000     0.0000000     0.0000000     0.0000000
     0.0000000     0.0000000     0.0000000     0.0000000     0.0000000     0.0000000     0.0000000
     0.0000000     0.0000000     0.0000000     0.0000000     0.0000000     0.0000000     0.0000000
     0.0000000     0.0000000     0.0000000     0.0000000     0.0000000     0.0000000     0.0000000
     0.0000000     0.0000000     0.0000000     0.0000000     0.0000000     0.0000000     0.0000000

 Ion:   63  E_soc:     -0.1876136
 l=   1
     0.0000000    -0.0312534    -0.0312513
    -0.0312534     0.0000000    -0.0311376
    -0.0312513    -0.0311376     0.0000000
 l=   2
    -0.0000000    -0.0000256     0.0000000    -0.0000254    -0.0000295
    -0.0000256    -0.0000000    -0.0000224    -0.0000254    -0.0000072
     0.0000000    -0.0000224     0.0000000    -0.0000218     0.0000000
    -0.0000254    -0.0000254    -0.0000218    -0.0000000    -0.0000072
    -0.0000295    -0.0000072     0.0000000    -0.0000072     0.0000000
 l=   3
     0.0000000     0.0000000     0.0000000     0.0000000     0.0000000     0.0000000     0.0000000
     0.0000000     0.0000000     0.0000000     0.0000000     0.0000000     0.0000000     0.0000000
     0.0000000     0.0000000     0.0000000     0.0000000     0.0000000     0.0000000     0.0000000
     0.0000000     0.0000000     0.0000000     0.0000000     0.0000000     0.0000000     0.0000000
     0.0000000     0.0000000     0.0000000     0.0000000     0.0000000     0.0000000     0.0000000
     0.0000000     0.0000000     0.0000000     0.0000000     0.0000000     0.0000000     0.0000000
     0.0000000     0.0000000     0.0000000     0.0000000     0.0000000     0.0000000     0.0000000

 Ion:   64  E_soc:     -0.1849251
 l=   1
     0.0000000    -0.0307975    -0.0307296
    -0.0307975     0.0000000    -0.0307470
    -0.0307296    -0.0307470     0.0000000
 l=   2
    -0.0000000    -0.0000286     0.0000000    -0.0000288    -0.0000340
    -0.0000286    -0.0000000    -0.0000266    -0.0000280    -0.0000094
     0.0000000    -0.0000266     0.0000000    -0.0000248     0.0000000
    -0.0000288    -0.0000280    -0.0000248    -0.0000000    -0.0000084
    -0.0000340    -0.0000094     0.0000000    -0.0000084    -0.0000000
 l=   3
     0.0000000     0.0000000     0.0000000     0.0000000     0.0000000     0.0000000     0.0000000
     0.0000000     0.0000000     0.0000000     0.0000000     0.0000000     0.0000000     0.0000000
     0.0000000     0.0000000     0.0000000     0.0000000     0.0000000     0.0000000     0.0000000
     0.0000000     0.0000000     0.0000000     0.0000000     0.0000000     0.0000000     0.0000000
     0.0000000     0.0000000     0.0000000     0.0000000     0.0000000     0.0000000     0.0000000
     0.0000000     0.0000000     0.0000000     0.0000000     0.0000000     0.0000000     0.0000000
     0.0000000     0.0000000     0.0000000     0.0000000     0.0000000     0.0000000     0.0000000

 Ion:   65  E_soc:     -0.1875550
 l=   1
     0.0000000    -0.0312413    -0.0312428
    -0.0312413     0.0000000    -0.0311288
    -0.0312428    -0.0311288     0.0000000
 l=   2
    -0.0000000    -0.0000258     0.0000000    -0.0000253    -0.0000296
    -0.0000258    -0.0000000    -0.0000223    -0.0000251    -0.0000073
     0.0000000    -0.0000223     0.0000000    -0.0000218     0.0000000
    -0.0000253    -0.0000251    -0.0000218    -0.0000000    -0.0000074
    -0.0000296    -0.0000073     0.0000000    -0.0000074     0.0000000
 l=   3
     0.0000000     0.0000000     0.0000000     0.0000000     0.0000000     0.0000000     0.0000000
     0.0000000     0.0000000     0.0000000     0.0000000     0.0000000     0.0000000     0.0000000
     0.0000000     0.0000000     0.0000000     0.0000000     0.0000000     0.0000000     0.0000000
     0.0000000     0.0000000     0.0000000     0.0000000     0.0000000     0.0000000     0.0000000
     0.0000000     0.0000000     0.0000000     0.0000000     0.0000000     0.0000000     0.0000000
     0.0000000     0.0000000     0.0000000     0.0000000     0.0000000     0.0000000     0.0000000
     0.0000000     0.0000000     0.0000000     0.0000000     0.0000000     0.0000000     0.0000000



 total charge

# of ion       s       p       d       tot
------------------------------------------
    1        0.404   0.278   9.581  10.263
    2        0.414   0.292   9.581  10.287
    3        0.414   0.292   9.581  10.287
    4        0.412   0.293   9.581  10.286
    5        0.414   0.292   9.581  10.287
    6        0.413   0.293   9.581  10.286
    7        0.413   0.293   9.581  10.286
    8        0.411   0.290   9.581  10.282
    9        0.414   0.292   9.581  10.287
   10        0.404   0.278   9.581  10.263
   11        0.413   0.293   9.581  10.286
   12        0.414   0.292   9.581  10.287
   13        0.413   0.293   9.581  10.286
   14        0.414   0.292   9.581  10.287
   15        0.411   0.290   9.581  10.282
   16        0.413   0.293   9.581  10.286
   17        0.413   0.293   9.581  10.286
   18        0.414   0.292   9.581  10.287
   19        0.411   0.290   9.581  10.282
   20        0.413   0.293   9.581  10.286
   21        0.414   0.292   9.581  10.287
   22        0.404   0.278   9.581  10.263
   23        0.413   0.293   9.581  10.286
   24        0.414   0.292   9.581  10.287
   25        0.414   0.292   9.581  10.287
   26        0.413   0.293   9.581  10.286
   27        0.413   0.293   9.581  10.286
   28        0.411   0.290   9.581  10.282
   29        0.404   0.278   9.581  10.263
   30        0.414   0.292   9.581  10.287
   31        0.414   0.292   9.581  10.287
   32        0.413   0.293   9.581  10.286
   33        0.722   0.152   9.551  10.425
   34        1.291   2.235   0.016   3.542
   35        1.302   2.208   0.016   3.526
   36        1.291   2.233   0.016   3.540
   37        1.291   2.235   0.016   3.542
   38        1.291   2.235   0.016   3.542
   39        1.302   2.208   0.016   3.526
   40        1.291   2.233   0.016   3.540
   41        1.291   2.235   0.016   3.542
   42        1.290   2.232   0.015   3.537
   43        1.291   2.231   0.016   3.538
   44        1.291   2.231   0.016   3.538
   45        1.291   2.232   0.015   3.537
   46        1.291   2.231   0.016   3.538
   47        1.291   2.232   0.015   3.537
   48        1.290   2.232   0.015   3.537
   49        1.291   2.231   0.016   3.538
   50        1.291   2.235   0.016   3.542
   51        1.291   2.235   0.016   3.542
   52        1.291   2.233   0.016   3.540
   53        1.291   2.233   0.016   3.540
   54        1.302   2.208   0.016   3.526
   55        1.302   2.208   0.016   3.526
   56        1.291   2.235   0.016   3.542
   57        1.291   2.235   0.016   3.542
   58        1.291   2.233   0.016   3.540
   59        1.291   2.235   0.016   3.542
   60        1.291   2.233   0.016   3.540
   61        1.291   2.235   0.016   3.542
   62        1.291   2.235   0.016   3.542
   63        1.302   2.208   0.016   3.526
   64        1.291   2.235   0.016   3.542
   65        1.302   2.208   0.016   3.526
--------------------------------------------------
tot         55.266  80.759 316.654 452.679



 magnetization (x)

# of ion       s       p       d       tot
------------------------------------------
    1       -0.005  -0.004   0.003  -0.006
    2       -0.005  -0.003   0.002  -0.006
    3       -0.005  -0.003   0.002  -0.006
    4       -0.005  -0.004   0.002  -0.006
    5       -0.005  -0.003   0.002  -0.006
    6       -0.005  -0.003   0.002  -0.006
    7       -0.005  -0.004   0.002  -0.006
    8       -0.005  -0.004   0.002  -0.006
    9       -0.005  -0.003   0.002  -0.006
   10       -0.005  -0.004   0.003  -0.006
   11       -0.005  -0.004   0.002  -0.006
   12       -0.005  -0.003   0.002  -0.006
   13       -0.004  -0.003   0.002  -0.006
   14       -0.005  -0.003   0.002  -0.006
   15       -0.005  -0.004   0.002  -0.006
   16       -0.005  -0.004   0.002  -0.006
   17       -0.005  -0.004   0.002  -0.006
   18       -0.005  -0.003   0.002  -0.006
   19       -0.005  -0.004   0.002  -0.006
   20       -0.005  -0.004   0.002  -0.006
   21       -0.005  -0.003   0.002  -0.006
   22       -0.005  -0.004   0.003  -0.006
   23       -0.005  -0.004   0.002  -0.006
   24       -0.005  -0.003   0.002  -0.006
   25       -0.005  -0.003   0.002  -0.006
   26       -0.005  -0.003   0.002  -0.006
   27       -0.005  -0.004   0.002  -0.006
   28       -0.005  -0.004   0.002  -0.006
   29       -0.005  -0.004   0.003  -0.006
   30       -0.005  -0.003   0.002  -0.006
   31       -0.005  -0.003   0.002  -0.006
   32       -0.005  -0.004   0.002  -0.006
   33        0.023  -0.003   0.002   0.022
   34        0.009   0.023  -0.000   0.031
   35        0.009   0.026  -0.000   0.035
   36        0.009   0.022  -0.000   0.031
   37        0.009   0.023  -0.000   0.031
   38        0.009   0.023  -0.000   0.031
   39        0.009   0.026  -0.000   0.035
   40        0.009   0.022  -0.000   0.031
   41        0.009   0.023  -0.000   0.031
   42        0.009   0.023  -0.000   0.031
   43        0.010   0.023  -0.000   0.032
   44        0.010   0.023  -0.000   0.032
   45        0.009   0.023  -0.000   0.032
   46        0.010   0.023  -0.000   0.032
   47        0.009   0.023  -0.000   0.032
   48        0.009   0.023  -0.000   0.032
   49        0.010   0.023  -0.000   0.032
   50        0.009   0.023  -0.000   0.031
   51        0.009   0.023  -0.000   0.031
   52        0.009   0.022  -0.000   0.031
   53        0.009   0.022  -0.000   0.031
   54        0.009   0.026  -0.000   0.035
   55        0.009   0.026  -0.000   0.035
   56        0.009   0.023  -0.000   0.031
   57        0.009   0.023  -0.000   0.031
   58        0.009   0.022  -0.000   0.031
   59        0.009   0.023  -0.000   0.031
   60        0.009   0.022  -0.000   0.031
   61        0.009   0.023  -0.000   0.032
   62        0.009   0.023  -0.000   0.032
   63        0.009   0.026  -0.000   0.035
   64        0.009   0.023  -0.000   0.031
   65        0.009   0.026  -0.000   0.035
--------------------------------------------------
tot          0.167   0.626   0.073   0.866



 magnetization (y)

# of ion       s       p       d       tot
------------------------------------------
    1       -0.005  -0.004   0.003  -0.006
    2       -0.005  -0.003   0.002  -0.006
    3       -0.005  -0.003   0.002  -0.006
    4       -0.005  -0.004   0.002  -0.006
    5       -0.005  -0.003   0.002  -0.006
    6       -0.005  -0.004   0.002  -0.006
    7       -0.005  -0.004   0.002  -0.006
    8       -0.005  -0.004   0.002  -0.006
    9       -0.005  -0.003   0.002  -0.006
   10       -0.005  -0.004   0.003  -0.006
   11       -0.005  -0.004   0.002  -0.006
   12       -0.005  -0.003   0.002  -0.006
   13       -0.005  -0.004   0.002  -0.006
   14       -0.005  -0.003   0.002  -0.006
   15       -0.005  -0.004   0.002  -0.006
   16       -0.005  -0.004   0.002  -0.006
   17       -0.005  -0.004   0.002  -0.006
   18       -0.005  -0.003   0.002  -0.006
   19       -0.005  -0.004   0.002  -0.006
   20       -0.005  -0.004   0.002  -0.006
   21       -0.005  -0.003   0.002  -0.006
   22       -0.005  -0.004   0.003  -0.006
   23       -0.005  -0.004   0.002  -0.006
   24       -0.005  -0.003   0.002  -0.006
   25       -0.005  -0.003   0.002  -0.006
   26       -0.005  -0.004   0.002  -0.006
   27       -0.004  -0.004   0.002  -0.006
   28       -0.005  -0.004   0.002  -0.006
   29       -0.005  -0.004   0.003  -0.006
   30       -0.005  -0.003   0.002  -0.006
   31       -0.005  -0.003   0.002  -0.006
   32       -0.005  -0.004   0.002  -0.006
   33        0.023  -0.003   0.002   0.022
   34        0.009   0.023  -0.000   0.032
   35        0.009   0.026  -0.000   0.035
   36        0.009   0.022  -0.000   0.031
   37        0.009   0.023  -0.000   0.031
   38        0.009   0.023  -0.000   0.031
   39        0.009   0.026  -0.000   0.035
   40        0.009   0.022  -0.000   0.031
   41        0.009   0.023  -0.000   0.032
   42        0.009   0.023  -0.000   0.031
   43        0.010   0.023  -0.000   0.032
   44        0.010   0.023  -0.000   0.032
   45        0.009   0.023  -0.000   0.031
   46        0.010   0.023  -0.000   0.032
   47        0.009   0.023  -0.000   0.031
   48        0.009   0.023  -0.000   0.032
   49        0.010   0.023  -0.000   0.032
   50        0.009   0.023  -0.000   0.032
   51        0.009   0.023  -0.000   0.031
   52        0.009   0.022  -0.000   0.031
   53        0.009   0.022  -0.000   0.031
   54        0.009   0.026  -0.000   0.035
   55        0.009   0.026  -0.000   0.035
   56        0.009   0.023  -0.000   0.031
   57        0.009   0.023  -0.000   0.031
   58        0.009   0.022  -0.000   0.031
   59        0.009   0.023  -0.000   0.031
   60        0.009   0.022  -0.000   0.031
   61        0.009   0.023  -0.000   0.032
   62        0.009   0.023  -0.000   0.032
   63        0.009   0.026  -0.000   0.035
   64        0.009   0.023  -0.000   0.031
   65        0.009   0.026  -0.000   0.035
--------------------------------------------------
tot          0.168   0.626   0.073   0.867



 magnetization (z)

# of ion       s       p       d       tot
------------------------------------------
    1       -0.005  -0.004   0.003  -0.006
    2       -0.005  -0.003   0.002  -0.006
    3       -0.005  -0.003   0.002  -0.006
    4       -0.005  -0.003   0.002  -0.006
    5       -0.005  -0.003   0.002  -0.006
    6       -0.005  -0.004   0.002  -0.006
    7       -0.005  -0.004   0.002  -0.006
    8       -0.005  -0.004   0.002  -0.006
    9       -0.005  -0.003   0.002  -0.006
   10       -0.005  -0.004   0.003  -0.006
   11       -0.005  -0.004   0.002  -0.006
   12       -0.005  -0.003   0.002  -0.006
   13       -0.005  -0.004   0.002  -0.006
   14       -0.005  -0.003   0.002  -0.006
   15       -0.005  -0.004   0.002  -0.006
   16       -0.005  -0.004   0.002  -0.006
   17       -0.005  -0.004   0.002  -0.006
   18       -0.005  -0.003   0.002  -0.006
   19       -0.005  -0.004   0.002  -0.006
   20       -0.005  -0.004   0.002  -0.006
   21       -0.005  -0.003   0.002  -0.006
   22       -0.005  -0.004   0.003  -0.006
   23       -0.005  -0.003   0.002  -0.006
   24       -0.005  -0.003   0.002  -0.006
   25       -0.005  -0.003   0.002  -0.006
   26       -0.005  -0.004   0.002  -0.006
   27       -0.005  -0.004   0.002  -0.006
   28       -0.005  -0.004   0.002  -0.006
   29       -0.005  -0.004   0.003  -0.006
   30       -0.005  -0.003   0.002  -0.006
   31       -0.005  -0.003   0.002  -0.006
   32       -0.005  -0.004   0.002  -0.006
   33        0.023  -0.003   0.002   0.022
   34        0.009   0.023  -0.000   0.031
   35        0.009   0.026  -0.000   0.035
   36        0.009   0.022  -0.000   0.031
   37        0.009   0.023  -0.000   0.032
   38        0.009   0.023  -0.000   0.032
   39        0.009   0.026  -0.000   0.035
   40        0.009   0.022  -0.000   0.031
   41        0.009   0.023  -0.000   0.031
   42        0.009   0.023  -0.000   0.032
   43        0.010   0.023  -0.000   0.032
   44        0.010   0.023  -0.000   0.032
   45        0.009   0.023  -0.000   0.031
   46        0.010   0.023  -0.000   0.032
   47        0.009   0.023  -0.000   0.032
   48        0.009   0.023  -0.000   0.032
   49        0.010   0.023  -0.000   0.032
   50        0.009   0.023  -0.000   0.031
   51        0.009   0.023  -0.000   0.031
   52        0.009   0.022  -0.000   0.031
   53        0.009   0.022  -0.000   0.031
   54        0.009   0.026  -0.000   0.035
   55        0.009   0.026  -0.000   0.035
   56        0.009   0.023  -0.000   0.032
   57        0.009   0.023  -0.000   0.031
   58        0.009   0.022  -0.000   0.031
   59        0.009   0.023  -0.000   0.031
   60        0.009   0.022  -0.000   0.031
   61        0.009   0.023  -0.000   0.031
   62        0.009   0.023  -0.000   0.031
   63        0.009   0.026  -0.000   0.035
   64        0.009   0.023  -0.000   0.031
   65        0.009   0.026  -0.000   0.035
--------------------------------------------------
tot          0.167   0.626   0.073   0.867


 total amount of memory used by VASP MPI-rank0   127515. kBytes
=======================================================================

   base      :      30000. kBytes
   nonl-proj :      10272. kBytes
   fftplans  :       8138. kBytes
   grid      :      15925. kBytes
   one-center:        311. kBytes
   HF        :        129. kBytes
   nonlr-proj:      10576. kBytes
   wavefun   :      10221. kBytes
   fock_wrk  :      41943. kBytes

  
  
 General timing and accounting informations for this job:
 ========================================================
  
                  Total CPU time used (sec):     2272.568
                            User time (sec):     2245.026
                          System time (sec):       27.542
                         Elapsed time (sec):     2408.936
  
                   Maximum memory used (kb):      784208.
                   Average memory used (kb):          N/A
  
                          Minor page faults:       434259
                          Major page faults:           25
                 Voluntary context switches:        92084
