 +-------------------------------------------------+
 |                                                 |
 |      CCC   AA    SSS  TTTTT  EEEEE  PPPP        |
 |     C     A  A  S       T    E      P   P       |
 |     C     AAAA   SS     T    EEE    PPPP        |
 |     C     A  A     S    T    E      P           |
 |      CCC  A  A  SSS     T    EEEEE  P           |
 |                                                 |
 +-------------------------------------------------+
 |                                                 |
 | Welcome to Academic Release CASTEP version 17.21|          
 | Ab Initio Total Energy Program                  |
 |                                                 |
 | Authors:                                        |
 | M. Segall, M. Probert, C. Pickard, P. Hasnip,   |
 | S. Clark, K. Refson, J. R. Yates, M. Payne      |
 |                                                 |
 | Contributors:                                   |
 | P. Lindan, P. Haynes, J. White, V. Milman,      |
 | N. Govind, M. Gibson, P. Tulip, V. Cocula,      |
 | B. Montanari, D. Quigley, M. Glover,            |
 | L. Bernasconi, A. Perlov, M. Plummer,           |
 | E. McNellis, J. Meyer, J. Gale, D. Jochym       |
 | J. Aarons, B. Walker, R. Gillen, D. Jones       |
 | T. Green, I. J. Bush, C. J. Armstrong,          |
 | E. J. Higgins, E. L. Brown, M. S. McFly,        |
 | J. Wilkins, B-C. Shih, P. J. P. Byrne           |
 |                                                 |
 | Copyright (c) 2000 - 2017                       |
 |                                                 |
 |     Distributed under the terms of an           |
 |     Agreement between the United Kingdom        |
 |     Car-Parrinello (UKCP) Consortium,           |
 |     Daresbury Laboratory and Accelrys, Inc.     |
 |                                                 |
 | Please cite                                     |
 |                                                 |
 |     "First principles methods using CASTEP"     |
 |                                                 |
 |         Zeitschrift fuer Kristallographie       |
 |           220(5-6) pp. 567-570 (2005)           |
 |                                                 |
 | S. J. Clark, M. D. Segall, C. J. Pickard,       |
 | P. J. Hasnip, M. J. Probert, K. Refson,         |
 | M. C. Payne                                     |
 |                                                 |
 |       in all publications arising from          |
 |              your use of CASTEP                 |
 |                                                 |
 +-------------------------------------------------+
 
 
 Compiled for linux_x86_64_ifort17 on Wed, 03 Jul 2019 12:48:22 +0100
 from code version 
 056e886bd5a1+ Castep172_branch Mon, 15 May 2017 14:45:35 +0100
 Compiler: Intel Fortran 17.0.4.196; Optimisation: fast
 MATHLIBS: Intel MKL(2017.0.3) (LAPACK version 3.7.0)
 FFT Lib : mkl
 Fundamental constants values: CODATA 2010
 
 Run started: Wed, 03 Jul 2019 16:51:27 +0100
 
 Pseudo atomic calculation performed for O 2s2 2p4
 
 Converged in 13 iterations to a total energy of -430.9846 eV
 
 
 Pseudo atomic calculation performed for Al 3s2 3p1
 
 Converged in 14 iterations to a total energy of -53.3906 eV
 
 Calculation parallelised over 48 processes.
 Data is distributed by G-vector(24-way) and k-point(2-way)

 ************************************ Title ************************************
 3x3 sapphire surface benchmark (v1.1)

 ***************************** General Parameters ******************************
  
 output verbosity                               : normal  (1)
 write checkpoint data to                       : al3x3.check
 type of calculation                            : single point energy
 stress calculation                             : off
 density difference calculation                 : off
 electron localisation func (ELF) calculation   : off
 Hirshfeld analysis                             : off
 unlimited duration calculation
 timing information                             : on
 memory usage estimate                          : on
 write final potential to formatted file        : off
 write final density to formatted file          : off
 write BibTeX reference list                    : on
 write OTFG pseudopotential files               : on
 write electrostatic potential file             : on
 write bands file                               : on
 checkpoint writing                             : both castep_bin and check files
  
 output         length unit                     : A
 output           mass unit                     : amu
 output           time unit                     : ps
 output         charge unit                     : e
 output           spin unit                     : hbar/2
 output         energy unit                     : eV
 output          force unit                     : eV/A
 output       velocity unit                     : A/ps
 output       pressure unit                     : GPa
 output     inv_length unit                     : 1/A
 output      frequency unit                     : cm-1
 output force constant unit                     : eV/A**2
 output         volume unit                     : A**3
 output   IR intensity unit                     : (D/A)**2/amu
 output         dipole unit                     : D
 output         efield unit                     : eV/A/e
 output        entropy unit                     : J/mol/K
  
 wavefunctions paging                           : none
 random number generator seed                   :          1
 data distribution                              : optimal for this architecture
 optimization strategy                          : maximize speed(+++)

 *********************** Exchange-Correlation Parameters ***********************
  
 using functional                               : Perdew Wang (1991)
 relativistic treatment                         : Koelling-Harmon
 DFT+D: Semi-empirical dispersion correction    : off

 ************************* Pseudopotential Parameters **************************
  
 pseudopotential representation                 : reciprocal space
 <beta|phi> representation                      : reciprocal space
 spin-orbit coupling                            : off

 **************************** Basis Set Parameters *****************************
  
 plane wave basis set cut-off                   :   400.0000   eV
 size of standard grid                          :     1.7500
 size of   fine   gmax                          :    17.9311   1/A
 finite basis set correction                    : none

 **************************** Electronic Parameters ****************************
  
 number of  electrons                           :  1296.    
 net charge of system                           :  0.000    
 treating system as non-spin-polarized
 number of bands                                :        768

 ********************* Electronic Minimization Parameters **********************
  
 Method: Treating system as metallic with density mixing treatment of electrons,
         and number of  SD  steps               :          1
         and number of  CG  steps               :          4
  
 total energy / atom convergence tol.           : 0.1500E-01   eV
 eigen-energy convergence tolerance             : 0.1000E-05   eV
 max force / atom convergence tol.              : ignored
 convergence tolerance window                   :          3   cycles
 max. number of SCF cycles                      :         40
 smearing scheme                                : Gaussian
 smearing width                                 : 0.1000       eV
 Fermi energy convergence tolerance             : 0.2721E-13   eV
 periodic dipole correction                     : NONE

 ************************** Density Mixing Parameters **************************
  
 density-mixing scheme                          : Pulay
 max. length of mixing history                  :         20
 charge density mixing amplitude                : 0.8000    
 cut-off energy for mixing                      :  400.0       eV

 *******************************************************************************
  
 
                           -------------------------------
                                      Unit Cell
                           -------------------------------
        Real Lattice(A)                      Reciprocal Lattice(1/A)
  12.3642447  -7.1385000   0.0000000        0.5081738   0.0000000   0.0000000
   0.0000000  14.2770000   0.0000000        0.2540869   0.4400914   0.0000000
   0.0000000   0.0000000  27.5000000        0.0000000   0.0000000   0.2284795
 
                       Lattice parameters(A)       Cell Angles
                    a =   14.277000          alpha =   90.000000
                    b =   14.277000          beta  =   90.000000
                    c =   27.500000          gamma =  120.000000
 
                       Current cell volume = 4854.418839       A**3
                                   density =    1.134206   AMU/A**3
                                           =    1.883393     g/cm^3
 
                           -------------------------------
                                     Cell Contents
                           -------------------------------
                         Total number of ions in cell =  270
                      Total number of species in cell =    2
                        Max number of any one species =  162
 
            xxxxxxxxxxxxxxxxxxxxxxxxxxxxxxxxxxxxxxxxxxxxxxxxxxxxxxxxxxxx
            x  Element    Atom        Fractional coordinates of atoms  x
            x            Number           u          v          w      x
            x----------------------------------------------------------x
            x  O            1         0.102000   0.000000   0.645700   x 
            x  O            2         0.000000   0.102000   0.645700   x 
            x  O            3         0.231333   0.231333   0.645700   x 
            x  O            4         0.009111   0.222222   0.724433   x 
            x  O            5         0.111111   0.120222   0.724433   x 
            x  O            6         0.213111   0.324222   0.724433   x 
            x  O            7         0.120222   0.111111   0.566967   x 
            x  O            8         0.222222   0.009111   0.566967   x 
            x  O            9         0.324222   0.213111   0.566967   x 
            x  O           10         0.324222   0.111111   0.803167   x 
            x  O           11         0.222222   0.213111   0.803167   x 
            x  O           12         0.120222   0.009111   0.803167   x 
            x  O           13         0.213111   0.222222   0.960633   x 
            x  O           14         0.111111   0.324222   0.960633   x 
            x  O           15         0.009111   0.120222   0.960633   x 
            x  O           16         0.231333   0.000000   0.881900   x 
            x  O           17         0.000000   0.231333   0.881900   x 
            x  O           18         0.102000   0.102000   0.881900   x 
            x  O           19         0.102000   0.333333   0.645700   x 
            x  O           20         0.000000   0.435333   0.645700   x 
            x  O           21         0.231333   0.564667   0.645700   x 
            x  O           22         0.009111   0.555556   0.724433   x 
            x  O           23         0.111111   0.453556   0.724433   x 
            x  O           24         0.213111   0.657556   0.724433   x 
            x  O           25         0.120222   0.444444   0.566967   x 
            x  O           26         0.222222   0.342444   0.566967   x 
            x  O           27         0.324222   0.546444   0.566967   x 
            x  O           28         0.324222   0.444444   0.803167   x 
            x  O           29         0.222222   0.546444   0.803167   x 
            x  O           30         0.120222   0.342444   0.803167   x 
            x  O           31         0.213111   0.555556   0.960633   x 
            x  O           32         0.111111   0.657556   0.960633   x 
            x  O           33         0.009111   0.453556   0.960633   x 
            x  O           34         0.231333   0.333333   0.881900   x 
            x  O           35         0.000000   0.564667   0.881900   x 
            x  O           36         0.102000   0.435333   0.881900   x 
            x  O           37         0.102000   0.666667   0.645700   x 
            x  O           38         0.000000   0.768667   0.645700   x 
            x  O           39         0.231333   0.898000   0.645700   x 
            x  O           40         0.009111   0.888889   0.724433   x 
            x  O           41         0.111111   0.786889   0.724433   x 
            x  O           42         0.213111   0.990889   0.724433   x 
            x  O           43         0.120222   0.777778   0.566967   x 
            x  O           44         0.222222   0.675778   0.566967   x 
            x  O           45         0.324222   0.879778   0.566967   x 
            x  O           46         0.324222   0.777778   0.803167   x 
            x  O           47         0.222222   0.879778   0.803167   x 
            x  O           48         0.120222   0.675778   0.803167   x 
            x  O           49         0.213111   0.888889   0.960633   x 
            x  O           50         0.111111   0.990889   0.960633   x 
            x  O           51         0.009111   0.786889   0.960633   x 
            x  O           52         0.231333   0.666667   0.881900   x 
            x  O           53         0.000000   0.898000   0.881900   x 
            x  O           54         0.102000   0.768667   0.881900   x 
            x  O           55         0.435333   0.000000   0.645700   x 
            x  O           56         0.333333   0.102000   0.645700   x 
            x  O           57         0.564667   0.231333   0.645700   x 
            x  O           58         0.342444   0.222222   0.724433   x 
            x  O           59         0.444444   0.120222   0.724433   x 
            x  O           60         0.546444   0.324222   0.724433   x 
            x  O           61         0.453556   0.111111   0.566967   x 
            x  O           62         0.555556   0.009111   0.566967   x 
            x  O           63         0.657556   0.213111   0.566967   x 
            x  O           64         0.657556   0.111111   0.803167   x 
            x  O           65         0.555556   0.213111   0.803167   x 
            x  O           66         0.453556   0.009111   0.803167   x 
            x  O           67         0.546444   0.222222   0.960633   x 
            x  O           68         0.444444   0.324222   0.960633   x 
            x  O           69         0.342444   0.120222   0.960633   x 
            x  O           70         0.564667   0.000000   0.881900   x 
            x  O           71         0.333333   0.231333   0.881900   x 
            x  O           72         0.435333   0.102000   0.881900   x 
            x  O           73         0.435333   0.333333   0.645700   x 
            x  O           74         0.333333   0.435333   0.645700   x 
            x  O           75         0.564667   0.564667   0.645700   x 
            x  O           76         0.342444   0.555556   0.724433   x 
            x  O           77         0.444444   0.453556   0.724433   x 
            x  O           78         0.546444   0.657556   0.724433   x 
            x  O           79         0.453556   0.444444   0.566967   x 
            x  O           80         0.555556   0.342444   0.566967   x 
            x  O           81         0.657556   0.546444   0.566967   x 
            x  O           82         0.657556   0.444444   0.803167   x 
            x  O           83         0.555556   0.546444   0.803167   x 
            x  O           84         0.453556   0.342444   0.803167   x 
            x  O           85         0.546444   0.555556   0.960633   x 
            x  O           86         0.444444   0.657556   0.960633   x 
            x  O           87         0.342444   0.453556   0.960633   x 
            x  O           88         0.564667   0.333333   0.881900   x 
            x  O           89         0.333333   0.564667   0.881900   x 
            x  O           90         0.435333   0.435333   0.881900   x 
            x  O           91         0.435333   0.666667   0.645700   x 
            x  O           92         0.333333   0.768667   0.645700   x 
            x  O           93         0.564667   0.898000   0.645700   x 
            x  O           94         0.342444   0.888889   0.724433   x 
            x  O           95         0.444444   0.786889   0.724433   x 
            x  O           96         0.546444   0.990889   0.724433   x 
            x  O           97         0.453556   0.777778   0.566967   x 
            x  O           98         0.555556   0.675778   0.566967   x 
            x  O           99         0.657556   0.879778   0.566967   x 
            x  O          100         0.657556   0.777778   0.803167   x 
            x  O          101         0.555556   0.879778   0.803167   x 
            x  O          102         0.453556   0.675778   0.803167   x 
            x  O          103         0.546444   0.888889   0.960633   x 
            x  O          104         0.444444   0.990889   0.960633   x 
            x  O          105         0.342444   0.786889   0.960633   x 
            x  O          106         0.564667   0.666667   0.881900   x 
            x  O          107         0.333333   0.898000   0.881900   x 
            x  O          108         0.435333   0.768667   0.881900   x 
            x  O          109         0.768667   0.000000   0.645700   x 
            x  O          110         0.666667   0.102000   0.645700   x 
            x  O          111         0.898000   0.231333   0.645700   x 
            x  O          112         0.675778   0.222222   0.724433   x 
            x  O          113         0.777778   0.120222   0.724433   x 
            x  O          114         0.879778   0.324222   0.724433   x 
            x  O          115         0.786889   0.111111   0.566967   x 
            x  O          116         0.888889   0.009111   0.566967   x 
            x  O          117         0.990889   0.213111   0.566967   x 
            x  O          118         0.990889   0.111111   0.803167   x 
            x  O          119         0.888889   0.213111   0.803167   x 
            x  O          120         0.786889   0.009111   0.803167   x 
            x  O          121         0.879778   0.222222   0.960633   x 
            x  O          122         0.777778   0.324222   0.960633   x 
            x  O          123         0.675778   0.120222   0.960633   x 
            x  O          124         0.898000   0.000000   0.881900   x 
            x  O          125         0.666667   0.231333   0.881900   x 
            x  O          126         0.768667   0.102000   0.881900   x 
            x  O          127         0.768667   0.333333   0.645700   x 
            x  O          128         0.666667   0.435333   0.645700   x 
            x  O          129         0.898000   0.564667   0.645700   x 
            x  O          130         0.675778   0.555556   0.724433   x 
            x  O          131         0.777778   0.453556   0.724433   x 
            x  O          132         0.879778   0.657556   0.724433   x 
            x  O          133         0.786889   0.444444   0.566967   x 
            x  O          134         0.888889   0.342444   0.566967   x 
            x  O          135         0.990889   0.546444   0.566967   x 
            x  O          136         0.990889   0.444444   0.803167   x 
            x  O          137         0.888889   0.546444   0.803167   x 
            x  O          138         0.786889   0.342444   0.803167   x 
            x  O          139         0.879778   0.555556   0.960633   x 
            x  O          140         0.777778   0.657556   0.960633   x 
            x  O          141         0.675778   0.453556   0.960633   x 
            x  O          142         0.898000   0.333333   0.881900   x 
            x  O          143         0.666667   0.564667   0.881900   x 
            x  O          144         0.768667   0.435333   0.881900   x 
            x  O          145         0.768667   0.666667   0.645700   x 
            x  O          146         0.666667   0.768667   0.645700   x 
            x  O          147         0.898000   0.898000   0.645700   x 
            x  O          148         0.675778   0.888889   0.724433   x 
            x  O          149         0.777778   0.786889   0.724433   x 
            x  O          150         0.879778   0.990889   0.724433   x 
            x  O          151         0.786889   0.777778   0.566967   x 
            x  O          152         0.888889   0.675778   0.566967   x 
            x  O          153         0.990889   0.879778   0.566967   x 
            x  O          154         0.990889   0.777778   0.803167   x 
            x  O          155         0.888889   0.879778   0.803167   x 
            x  O          156         0.786889   0.675778   0.803167   x 
            x  O          157         0.879778   0.888889   0.960633   x 
            x  O          158         0.777778   0.990889   0.960633   x 
            x  O          159         0.675778   0.786889   0.960633   x 
            x  O          160         0.898000   0.666667   0.881900   x 
            x  O          161         0.666667   0.898000   0.881900   x 
            x  O          162         0.768667   0.768667   0.881900   x 
            x  Al           1         0.000000   0.000000   0.693885   x 
            x  Al           2         0.000000   0.000000   0.597515   x 
            x  Al           3         0.222222   0.111111   0.615151   x 
            x  Al           4         0.111111   0.222222   0.676249   x 
            x  Al           5         0.222222   0.111111   0.754982   x 
            x  Al           6         0.111111   0.222222   0.772618   x 
            x  Al           7         0.222222   0.111111   0.991182   x 
            x  Al           8         0.111111   0.222222   0.536418   x 
            x  Al           9         0.000000   0.000000   0.833715   x 
            x  Al          10         0.222222   0.111111   0.851351   x 
            x  Al          11         0.000000   0.000000   0.930085   x 
            x  Al          12         0.111111   0.222222   0.912449   x 
            x  Al          13         0.000000   0.333333   0.693885   x 
            x  Al          14         0.000000   0.333333   0.597515   x 
            x  Al          15         0.222222   0.444444   0.615151   x 
            x  Al          16         0.111111   0.555556   0.676249   x 
            x  Al          17         0.222222   0.444444   0.754982   x 
            x  Al          18         0.111111   0.555556   0.772618   x 
            x  Al          19         0.222222   0.444444   0.991182   x 
            x  Al          20         0.111111   0.555556   0.536418   x 
            x  Al          21         0.000000   0.333333   0.833715   x 
            x  Al          22         0.222222   0.444444   0.851351   x 
            x  Al          23         0.000000   0.333333   0.930085   x 
            x  Al          24         0.111111   0.555556   0.912449   x 
            x  Al          25         0.000000   0.666667   0.693885   x 
            x  Al          26         0.000000   0.666667   0.597515   x 
            x  Al          27         0.222222   0.777778   0.615151   x 
            x  Al          28         0.111111   0.888889   0.676249   x 
            x  Al          29         0.222222   0.777778   0.754982   x 
            x  Al          30         0.111111   0.888889   0.772618   x 
            x  Al          31         0.222222   0.777778   0.991182   x 
            x  Al          32         0.111111   0.888889   0.536418   x 
            x  Al          33         0.000000   0.666667   0.833715   x 
            x  Al          34         0.222222   0.777778   0.851351   x 
            x  Al          35         0.000000   0.666667   0.930085   x 
            x  Al          36         0.111111   0.888889   0.912449   x 
            x  Al          37         0.333333   0.000000   0.693885   x 
            x  Al          38         0.333333   0.000000   0.597515   x 
            x  Al          39         0.555556   0.111111   0.615151   x 
            x  Al          40         0.444444   0.222222   0.676249   x 
            x  Al          41         0.555556   0.111111   0.754982   x 
            x  Al          42         0.444444   0.222222   0.772618   x 
            x  Al          43         0.555556   0.111111   0.991182   x 
            x  Al          44         0.444444   0.222222   0.536418   x 
            x  Al          45         0.333333   0.000000   0.833715   x 
            x  Al          46         0.555556   0.111111   0.851351   x 
            x  Al          47         0.333333   0.000000   0.930085   x 
            x  Al          48         0.444444   0.222222   0.912449   x 
            x  Al          49         0.333333   0.333333   0.693885   x 
            x  Al          50         0.333333   0.333333   0.597515   x 
            x  Al          51         0.555556   0.444444   0.615151   x 
            x  Al          52         0.444444   0.555556   0.676249   x 
            x  Al          53         0.555556   0.444444   0.754982   x 
            x  Al          54         0.444444   0.555556   0.772618   x 
            x  Al          55         0.555556   0.444444   0.991182   x 
            x  Al          56         0.444444   0.555556   0.536418   x 
            x  Al          57         0.333333   0.333333   0.833715   x 
            x  Al          58         0.555556   0.444444   0.851351   x 
            x  Al          59         0.333333   0.333333   0.930085   x 
            x  Al          60         0.444444   0.555556   0.912449   x 
            x  Al          61         0.333333   0.666667   0.693885   x 
            x  Al          62         0.333333   0.666667   0.597515   x 
            x  Al          63         0.555556   0.777778   0.615151   x 
            x  Al          64         0.444444   0.888889   0.676249   x 
            x  Al          65         0.555556   0.777778   0.754982   x 
            x  Al          66         0.444444   0.888889   0.772618   x 
            x  Al          67         0.555556   0.777778   0.991182   x 
            x  Al          68         0.444444   0.888889   0.536418   x 
            x  Al          69         0.333333   0.666667   0.833715   x 
            x  Al          70         0.555556   0.777778   0.851351   x 
            x  Al          71         0.333333   0.666667   0.930085   x 
            x  Al          72         0.444444   0.888889   0.912449   x 
            x  Al          73         0.666667   0.000000   0.693885   x 
            x  Al          74         0.666667   0.000000   0.597515   x 
            x  Al          75         0.888889   0.111111   0.615151   x 
            x  Al          76         0.777778   0.222222   0.676249   x 
            x  Al          77         0.888889   0.111111   0.754982   x 
            x  Al          78         0.777778   0.222222   0.772618   x 
            x  Al          79         0.888889   0.111111   0.991182   x 
            x  Al          80         0.777778   0.222222   0.536418   x 
            x  Al          81         0.666667   0.000000   0.833715   x 
            x  Al          82         0.888889   0.111111   0.851351   x 
            x  Al          83         0.666667   0.000000   0.930085   x 
            x  Al          84         0.777778   0.222222   0.912449   x 
            x  Al          85         0.666667   0.333333   0.693885   x 
            x  Al          86         0.666667   0.333333   0.597515   x 
            x  Al          87         0.888889   0.444444   0.615151   x 
            x  Al          88         0.777778   0.555556   0.676249   x 
            x  Al          89         0.888889   0.444444   0.754982   x 
            x  Al          90         0.777778   0.555556   0.772618   x 
            x  Al          91         0.888889   0.444444   0.991182   x 
            x  Al          92         0.777778   0.555556   0.536418   x 
            x  Al          93         0.666667   0.333333   0.833715   x 
            x  Al          94         0.888889   0.444444   0.851351   x 
            x  Al          95         0.666667   0.333333   0.930085   x 
            x  Al          96         0.777778   0.555556   0.912449   x 
            x  Al          97         0.666667   0.666667   0.693885   x 
            x  Al          98         0.666667   0.666667   0.597515   x 
            x  Al          99         0.888889   0.777778   0.615151   x 
            x  Al         100         0.777778   0.888889   0.676249   x 
            x  Al         101         0.888889   0.777778   0.754982   x 
            x  Al         102         0.777778   0.888889   0.772618   x 
            x  Al         103         0.888889   0.777778   0.991182   x 
            x  Al         104         0.777778   0.888889   0.536418   x 
            x  Al         105         0.666667   0.666667   0.833715   x 
            x  Al         106         0.888889   0.777778   0.851351   x 
            x  Al         107         0.666667   0.666667   0.930085   x 
            x  Al         108         0.777778   0.888889   0.912449   x 
            xxxxxxxxxxxxxxxxxxxxxxxxxxxxxxxxxxxxxxxxxxxxxxxxxxxxxxxxxxxx
 
 
                         No user defined ionic velocities
 
                           -------------------------------
                                   Details of Species
                           -------------------------------
 
                               Mass of species in AMU
                                    O   15.9994000
                                    Al   26.9815400
 
                          Electric Quadrupole Moment (Barn)
                                    O   -0.0255800 Isotope 17
                                    Al    0.1466000 Isotope 27
 
                          Files used for pseudopotentials:
                                    O O_00.usp
                                    Al Al_00.usp
 
                           -------------------------------
                              k-Points For BZ Sampling
                           -------------------------------
                       MP grid size for SCF calculation is  2  2  1
                            with an offset of   0.000  0.000  0.000
                       Number of kpoints used =             2
 
                           -------------------------------
                               Symmetry and Constraints
                           -------------------------------
 
                      Cell is a supercell containing 9 primitive cells
                      Maximum deviation from symmetry =  0.00000         ANG
 
                      Number of symmetry operations   =           1
                      Number of ionic constraints     =           3
                      Point group of crystal =     1: C1, 1, 1
                      Space group of crystal =   147: P-3, -P 3
 
             Set iprint > 1 for details on symmetry rotations/translations
 
                         Centre of mass is constrained
             Set iprint > 1 for details of linear ionic constraints
 
                         Number of cell constraints= 0
                         Cell constraints are:  1 2 3 4 5 6
 
                         External pressure/stress (GPa)
                          0.00000   0.00000   0.00000
                                    0.00000   0.00000
                                              0.00000
  
+---------------- MEMORY AND SCRATCH DISK ESTIMATES PER PROCESS --------------+
|                                                     Memory          Disk    |
| Baseline code, static data and system overhead      371.0 MB         0.0 MB |
| BLAS internal memory storage                          0.0 MB         0.0 MB |
| Model and support data                              228.2 MB         0.0 MB |
| Electronic energy minimisation requirements         199.8 MB         0.0 MB |
| Force calculation requirements                        6.3 MB         0.0 MB |
|                                               ----------------------------- |
| Approx. total storage required per process          799.0 MB         0.0 MB |
|                                                                             |
| Requirements will fluctuate during execution and may exceed these estimates |
+-----------------------------------------------------------------------------+
Calculating total energy with cut-off of  400.000 eV.
------------------------------------------------------------------------ <-- SCF
SCF loop      Energy           Fermi           Energy gain       Timer   <-- SCF
                               energy          per atom          (sec)   <-- SCF
------------------------------------------------------------------------ <-- SCF
Initial  -5.93940074E+004  0.00000000E+000                         4.79  <-- SCF
      1  -7.24032860E+004  4.02492958E+000   4.81825134E+001      69.31  <-- SCF
      2  -7.78235892E+004  1.87565685E+000   2.00751971E+001     111.99  <-- SCF
      3  -7.79864320E+004  1.80238815E+000   6.03121574E-001     155.48  <-- SCF
      4  -7.78412402E+004  1.95881597E+000  -5.37747601E-001     210.72  <-- SCF
      5  -7.77211075E+004  1.34876807E+000  -4.44935808E-001     265.74  <-- SCF
      6  -7.77152102E+004  1.12179560E+000  -2.18419264E-002     326.04  <-- SCF
      7  -7.77129437E+004  1.05270171E+000  -8.39436257E-003     380.56  <-- SCF
      8  -7.77104456E+004  1.02763057E+000  -9.25233804E-003     435.77  <-- SCF
      9  -7.77084279E+004  9.96556279E-001  -7.47295747E-003     489.41  <-- SCF
     10  -7.77059605E+004  1.11184046E+000  -9.13853801E-003     544.04  <-- SCF
     11  -7.77052040E+004  1.16303356E+000  -2.80176442E-003     596.50  <-- SCF
------------------------------------------------------------------------ <-- SCF
 
Final energy, E             =  -77705.20397601     eV
Final free energy (E-TS)    =  -77705.20397602     eV
(energies not corrected for finite basis set)
 
NB est. 0K energy (E-0.5TS)      =  -77705.20397602     eV
 

Writing analysis data to al3x3.castep_bin

Writing model to al3x3.check
 
 ******************* Unconstrained Forces *******************
 *                                                          *
 *               Cartesian components (eV/A)                *
 * -------------------------------------------------------- *
 *                         x            y            z      *
 *                                                          *
 * O               1      0.15945      0.02612      0.85355 *
 * O               2     -0.10099      0.13016      0.84769 *
 * O               3     -0.05930     -0.15122      0.84473 *
 * O               4     -0.10249      0.02669      0.39295 *
 * O               5      0.02273     -0.09248      0.39309 *
 * O               6      0.08025      0.07490      0.39200 *
 * O               7     -1.65754      1.76217     -1.01078 *
 * O               8     -0.70205     -2.32737     -1.01327 *
 * O               9      2.33676      0.56082     -1.02141 *
 * O              10      0.08173     -0.02271     -0.40527 *
 * O              11     -0.02263      0.08771     -0.39451 *
 * O              12     -0.05819     -0.06445     -0.39583 *
 * O              13      1.65619     -1.77043      0.96136 *
 * O              14      0.72005      2.35093      0.96008 *
 * O              15     -2.37472     -0.55129      0.95763 *
 * O              16     -0.17645     -0.00843     -0.80302 *
 * O              17      0.09799     -0.14058     -0.79879 *
 * O              18      0.07421      0.15329     -0.79493 *
 * O              19      0.16949      0.02096      0.85713 *
 * O              20     -0.10396      0.13141      0.85000 *
 * O              21     -0.05787     -0.14790      0.85252 *
 * O              22     -0.09603      0.02880      0.39270 *
 * O              23      0.02216     -0.10175      0.39545 *
 * O              24      0.07376      0.07810      0.39236 *
 * O              25     -1.67193      1.78940     -1.01162 *
 * O              26     -0.69867     -2.31621     -1.02201 *
 * O              27      2.33851      0.55583     -1.02400 *
 * O              28      0.08711     -0.01290     -0.39424 *
 * O              29     -0.02328      0.08644     -0.39686 *
 * O              30     -0.05726     -0.06324     -0.39734 *
 * O              31      1.66332     -1.77338      0.95445 *
 * O              32      0.70472      2.30247      0.95413 *
 * O              33     -2.35747     -0.54081      0.95766 *
 * O              34     -0.17488     -0.01589     -0.79903 *
 * O              35      0.10139     -0.13863     -0.79794 *
 * O              36      0.07478      0.15602     -0.79796 *
 * O              37      0.16456      0.02952      0.85162 *
 * O              38     -0.09714      0.12924      0.84689 *
 * O              39     -0.05756     -0.14382      0.84711 *
 * O              40     -0.10226      0.02261      0.39212 *
 * O              41      0.02245     -0.09770      0.38978 *
 * O              42      0.07732      0.07538      0.39021 *
 * O              43     -1.65445      1.75745     -1.01722 *
 * O              44     -0.69487     -2.33246     -1.01548 *
 * O              45      2.32958      0.56106     -1.01691 *
 * O              46      0.08549     -0.01508     -0.39328 *
 * O              47     -0.02790      0.08032     -0.39822 *
 * O              48     -0.05536     -0.06408     -0.39473 *
 * O              49      1.67802     -1.79873      0.93886 *
 * O              50      0.69738      2.29705      0.96350 *
 * O              51     -2.34921     -0.54620      0.95442 *
 * O              52     -0.16983     -0.01278     -0.79573 *
 * O              53      0.09221     -0.13713     -0.79211 *
 * O              54      0.07557      0.15190     -0.79856 *
 * O              55      0.16467      0.02531      0.85090 *
 * O              56     -0.09883      0.12768      0.84494 *
 * O              57     -0.06189     -0.15324      0.85305 *
 * O              58     -0.09830      0.02290      0.39365 *
 * O              59      0.01948     -0.09717      0.39803 *
 * O              60      0.07744      0.07179      0.39629 *
 * O              61     -1.63784      1.73173     -1.01988 *
 * O              62     -0.69916     -2.31330     -1.00646 *
 * O              63      2.35419      0.55377     -1.02289 *
 * O              64      0.08274     -0.01677     -0.39652 *
 * O              65     -0.02346      0.07976     -0.40362 *
 * O              66     -0.05928     -0.06366     -0.39927 *
 * O              67      1.66154     -1.77082      0.95572 *
 * O              68      0.70499      2.32033      0.96114 *
 * O              69     -2.38605     -0.55229      0.95051 *
 * O              70     -0.17782     -0.01121     -0.80051 *
 * O              71      0.09727     -0.13760     -0.80246 *
 * O              72      0.07499      0.15032     -0.79921 *
 * O              73      0.16201      0.02702      0.85403 *
 * O              74     -0.10001      0.12671      0.84701 *
 * O              75     -0.06191     -0.14936      0.84881 *
 * O              76     -0.09988      0.02550      0.39285 *
 * O              77      0.02408     -0.09556      0.39545 *
 * O              78      0.07154      0.07776      0.39153 *
 * O              79     -1.66274      1.76407     -1.01369 *
 * O              80     -0.70774     -2.33902     -1.01066 *
 * O              81      2.34015      0.56122     -1.03222 *
 * O              82      0.08264     -0.01514     -0.39595 *
 * O              83     -0.02563      0.08090     -0.40389 *
 * O              84     -0.05733     -0.06229     -0.39526 *
 * O              85      1.66583     -1.78837      0.94118 *
 * O              86      0.69679      2.30128      0.96799 *
 * O              87     -2.35525     -0.54491      0.95595 *
 * O              88     -0.16855     -0.00752     -0.79433 *
 * O              89      0.09543     -0.13991     -0.78943 *
 * O              90      0.07484      0.15189     -0.80119 *
 * O              91      0.16392      0.02311      0.84501 *
 * O              92     -0.09823      0.12706      0.84753 *
 * O              93     -0.06029     -0.14883      0.84832 *
 * O              94     -0.09704      0.02465      0.39525 *
 * O              95      0.02062     -0.09897      0.39198 *
 * O              96      0.07598      0.07532      0.39221 *
 * O              97     -1.65742      1.77304     -1.00488 *
 * O              98     -0.69022     -2.31176     -1.01680 *
 * O              99      2.32904      0.55165     -1.02626 *
 * O             100      0.08318     -0.01209     -0.39520 *
 * O             101     -0.01971      0.08157     -0.39862 *
 * O             102     -0.05984     -0.06368     -0.39806 *
 * O             103      1.66641     -1.78479      0.95048 *
 * O             104      0.68760      2.29251      0.96572 *
 * O             105     -2.34594     -0.54852      0.96881 *
 * O             106     -0.17194     -0.01048     -0.80111 *
 * O             107      0.09959     -0.13989     -0.79235 *
 * O             108      0.07242      0.15050     -0.79367 *
 * O             109      0.15911      0.02027      0.85209 *
 * O             110     -0.10381      0.12878      0.84809 *
 * O             111     -0.05910     -0.14978      0.85014 *
 * O             112     -0.09771      0.03094      0.39303 *
 * O             113      0.02694     -0.09764      0.39338 *
 * O             114      0.07688      0.07496      0.39485 *
 * O             115     -1.67119      1.77707     -1.01427 *
 * O             116     -0.70556     -2.32109     -1.01402 *
 * O             117      2.33963      0.55654     -1.03361 *
 * O             118      0.08395     -0.01690     -0.39920 *
 * O             119     -0.02384      0.08087     -0.39768 *
 * O             120     -0.05377     -0.06013     -0.39711 *
 * O             121      1.65077     -1.76118      0.95047 *
 * O             122      0.70476      2.30776      0.96428 *
 * O             123     -2.38669     -0.54453      0.94638 *
 * O             124     -0.17134     -0.01188     -0.79697 *
 * O             125      0.09811     -0.13480     -0.79715 *
 * O             126      0.08111      0.15348     -0.79737 *
 * O             127      0.16084      0.02788      0.85203 *
 * O             128     -0.09723      0.12539      0.85168 *
 * O             129     -0.05713     -0.15446      0.84693 *
 * O             130     -0.09451      0.02598      0.39276 *
 * O             131      0.02545     -0.09723      0.39635 *
 * O             132      0.07798      0.07252      0.38807 *
 * O             133     -1.63832      1.73767     -1.02648 *
 * O             134     -0.69480     -2.31056     -1.02860 *
 * O             135      2.32008      0.55621     -1.03089 *
 * O             136      0.08619     -0.01601     -0.40106 *
 * O             137     -0.02336      0.08240     -0.40236 *
 * O             138     -0.06152     -0.06241     -0.40119 *
 * O             139      1.66539     -1.79707      0.94294 *
 * O             140      0.71292      2.32907      0.95956 *
 * O             141     -2.33086     -0.54820      0.96853 *
 * O             142     -0.16965     -0.01271     -0.80308 *
 * O             143      0.09617     -0.14313     -0.79815 *
 * O             144      0.07400      0.14725     -0.79554 *
 * O             145      0.16590      0.02437      0.85489 *
 * O             146     -0.09807      0.12791      0.85027 *
 * O             147     -0.05379     -0.14938      0.84898 *
 * O             148     -0.09993      0.02431      0.39928 *
 * O             149      0.02865     -0.09201      0.39445 *
 * O             150      0.07565      0.07721      0.39525 *
 * O             151     -1.66883      1.76974     -1.00973 *
 * O             152     -0.71033     -2.34628     -1.00527 *
 * O             153      2.33831      0.56223     -1.03525 *
 * O             154      0.08976     -0.01914     -0.39643 *
 * O             155     -0.02736      0.08223     -0.39787 *
 * O             156     -0.05649     -0.06186     -0.39559 *
 * O             157      1.64608     -1.76408      0.95360 *
 * O             158      0.70819      2.31549      0.95589 *
 * O             159     -2.33797     -0.54848      0.95716 *
 * O             160     -0.17054     -0.01246     -0.80235 *
 * O             161      0.09541     -0.13660     -0.79771 *
 * O             162      0.06980      0.15338     -0.79799 *
 * Al              1      0.00035      0.00077     -0.01033 *
 * Al              2      0.00392     -0.00462     -0.85497 *
 * Al              3      0.00432      0.00555     -1.96801 *
 * Al              4      0.00080      0.00128     -0.22116 *
 * Al              5      0.00062      0.00088     -0.08337 *
 * Al              6      0.00133      0.00086      0.08608 *
 * Al              7     -0.02139      0.00293     -7.28910 *
 * Al              8     -0.00346      0.00008      7.29197 *
 * Al              9      0.00072      0.00098      0.01586 *
 * Al             10      0.00108      0.00099      0.24218 *
 * Al             11      0.00516     -0.01088      0.86138 *
 * Al             12      0.00478     -0.00462      1.96743 *
 * Al             13      0.00035      0.00061     -0.01030 *
 * Al             14     -0.00930     -0.00710     -0.84946 *
 * Al             15      0.00953      0.00026     -1.96156 *
 * Al             16      0.00064      0.00091     -0.22093 *
 * Al             17      0.00050      0.00047     -0.08355 *
 * Al             18      0.00110      0.00079      0.08612 *
 * Al             19      0.01566      0.00632     -7.28662 *
 * Al             20     -0.01659      0.01766      7.28996 *
 * Al             21      0.00117      0.00097      0.01632 *
 * Al             22      0.00051      0.00093      0.24247 *
 * Al             23     -0.01207      0.00686      0.85523 *
 * Al             24     -0.00124      0.00577      1.97758 *
 * Al             25      0.00055      0.00073     -0.01005 *
 * Al             26      0.01082     -0.01303     -0.85457 *
 * Al             27      0.00468      0.00713     -1.96918 *
 * Al             28      0.00058      0.00112     -0.22089 *
 * Al             29      0.00034      0.00061     -0.08349 *
 * Al             30      0.00067      0.00077      0.08610 *
 * Al             31     -0.00134     -0.02499     -7.28715 *
 * Al             32     -0.00658     -0.00134      7.29134 *
 * Al             33      0.00061      0.00037      0.01621 *
 * Al             34      0.00118      0.00064      0.24183 *
 * Al             35      0.01450      0.00590      0.86131 *
 * Al             36     -0.00946      0.00854      1.97502 *
 * Al             37      0.00087      0.00126     -0.00977 *
 * Al             38      0.01353     -0.00580     -0.86211 *
 * Al             39     -0.00478      0.00221     -1.97189 *
 * Al             40      0.00063      0.00057     -0.22091 *
 * Al             41      0.00025      0.00045     -0.08353 *
 * Al             42      0.00061      0.00103      0.08607 *
 * Al             43     -0.02544     -0.00115     -7.28842 *
 * Al             44     -0.01813     -0.01802      7.29132 *
 * Al             45      0.00136      0.00050      0.01654 *
 * Al             46      0.00070      0.00052      0.24199 *
 * Al             47      0.02270     -0.01072      0.85222 *
 * Al             48      0.00557      0.00511      1.96983 *
 * Al             49      0.00008      0.00110     -0.00953 *
 * Al             50      0.00346     -0.00700     -0.85724 *
 * Al             51      0.00152      0.00887     -1.96275 *
 * Al             52      0.00066      0.00102     -0.22074 *
 * Al             53     -0.00009      0.00101     -0.08363 *
 * Al             54      0.00102      0.00087      0.08619 *
 * Al             55      0.01161     -0.01185     -7.28898 *
 * Al             56     -0.00072      0.00496      7.29325 *
 * Al             57      0.00116      0.00084      0.01628 *
 * Al             58      0.00074      0.00112      0.24237 *
 * Al             59     -0.00008      0.00073      0.86105 *
 * Al             60     -0.00394      0.00547      1.97605 *
 * Al             61      0.00056      0.00045     -0.00975 *
 * Al             62      0.00081     -0.01017     -0.85201 *
 * Al             63      0.00757     -0.00007     -1.96937 *
 * Al             64      0.00123      0.00082     -0.22076 *
 * Al             65      0.00039      0.00032     -0.08363 *
 * Al             66      0.00084      0.00117      0.08638 *
 * Al             67      0.00191     -0.01691     -7.28858 *
 * Al             68     -0.00791      0.01462      7.29145 *
 * Al             69      0.00084      0.00076      0.01607 *
 * Al             70      0.00080      0.00106      0.24192 *
 * Al             71      0.00850      0.00204      0.86219 *
 * Al             72     -0.00520      0.00923      1.97822 *
 * Al             73      0.00061      0.00062     -0.00981 *
 * Al             74     -0.00753     -0.00886     -0.85640 *
 * Al             75      0.00605      0.00165     -1.96263 *
 * Al             76      0.00082      0.00072     -0.22118 *
 * Al             77      0.00021      0.00041     -0.08391 *
 * Al             78      0.00099      0.00094      0.08617 *
 * Al             79     -0.00752      0.00795     -7.28896 *
 * Al             80      0.00171      0.00816      7.28966 *
 * Al             81      0.00058      0.00076      0.01639 *
 * Al             82      0.00086      0.00045      0.24201 *
 * Al             83      0.00801     -0.00855      0.85043 *
 * Al             84      0.00819      0.00713      1.97371 *
 * Al             85      0.00048      0.00077     -0.01035 *
 * Al             86      0.01890     -0.00024     -0.85246 *
 * Al             87      0.00109      0.00659     -1.97453 *
 * Al             88      0.00108      0.00116     -0.22114 *
 * Al             89      0.00060      0.00058     -0.08379 *
 * Al             90      0.00125      0.00056      0.08633 *
 * Al             91     -0.00373     -0.01343     -7.28813 *
 * Al             92     -0.01221     -0.01564      7.29166 *
 * Al             93      0.00090      0.00056      0.01606 *
 * Al             94      0.00137      0.00112      0.24216 *
 * Al             95      0.00678      0.00708      0.86550 *
 * Al             96     -0.00839     -0.00252      1.97244 *
 * Al             97      0.00079      0.00063     -0.00978 *
 * Al             98     -0.00679     -0.00307     -0.85493 *
 * Al             99      0.00593      0.00650     -1.96015 *
 * Al            100      0.00118      0.00118     -0.22095 *
 * Al            101      0.00063      0.00112     -0.08337 *
 * Al            102      0.00104      0.00086      0.08656 *
 * Al            103      0.01340      0.00516     -7.28830 *
 * Al            104     -0.01245      0.01144      7.29159 *
 * Al            105      0.00102      0.00087      0.01612 *
 * Al            106      0.00049      0.00063      0.24162 *
 * Al            107      0.00193      0.01249      0.85604 *
 * Al            108     -0.00126     -0.00061      1.97960 *
 *                                                          *
 ************************************************************
 
 ******************** Constrained Forces ********************
 *                                                          *
 *               Cartesian components (eV/A)                *
 * -------------------------------------------------------- *
 *                         x            y            z      *
 *                                                          *
 * O               1      0.15945      0.02612      0.85355 *
 * O               2     -0.10099      0.13016      0.84769 *
 * O               3     -0.05930     -0.15122      0.84473 *
 * O               4     -0.10249      0.02669      0.39295 *
 * O               5      0.02273     -0.09248      0.39309 *
 * O               6      0.08025      0.07490      0.39200 *
 * O               7     -1.65754      1.76217     -1.01078 *
 * O               8     -0.70205     -2.32737     -1.01327 *
 * O               9      2.33676      0.56082     -1.02141 *
 * O              10      0.08173     -0.02271     -0.40527 *
 * O              11     -0.02263      0.08771     -0.39451 *
 * O              12     -0.05819     -0.06445     -0.39583 *
 * O              13      1.65619     -1.77043      0.96136 *
 * O              14      0.72005      2.35093      0.96008 *
 * O              15     -2.37472     -0.55129      0.95763 *
 * O              16     -0.17645     -0.00843     -0.80302 *
 * O              17      0.09799     -0.14058     -0.79879 *
 * O              18      0.07421      0.15329     -0.79493 *
 * O              19      0.16949      0.02096      0.85713 *
 * O              20     -0.10396      0.13141      0.85000 *
 * O              21     -0.05787     -0.14790      0.85252 *
 * O              22     -0.09603      0.02880      0.39270 *
 * O              23      0.02216     -0.10175      0.39545 *
 * O              24      0.07376      0.07810      0.39236 *
 * O              25     -1.67193      1.78940     -1.01162 *
 * O              26     -0.69867     -2.31621     -1.02201 *
 * O              27      2.33851      0.55583     -1.02400 *
 * O              28      0.08711     -0.01290     -0.39424 *
 * O              29     -0.02328      0.08644     -0.39686 *
 * O              30     -0.05726     -0.06324     -0.39734 *
 * O              31      1.66332     -1.77338      0.95445 *
 * O              32      0.70472      2.30247      0.95413 *
 * O              33     -2.35747     -0.54081      0.95766 *
 * O              34     -0.17488     -0.01589     -0.79903 *
 * O              35      0.10139     -0.13863     -0.79794 *
 * O              36      0.07478      0.15602     -0.79796 *
 * O              37      0.16456      0.02952      0.85162 *
 * O              38     -0.09714      0.12924      0.84689 *
 * O              39     -0.05756     -0.14382      0.84711 *
 * O              40     -0.10226      0.02261      0.39212 *
 * O              41      0.02245     -0.09770      0.38978 *
 * O              42      0.07732      0.07538      0.39021 *
 * O              43     -1.65445      1.75745     -1.01722 *
 * O              44     -0.69487     -2.33246     -1.01548 *
 * O              45      2.32958      0.56106     -1.01691 *
 * O              46      0.08549     -0.01508     -0.39328 *
 * O              47     -0.02790      0.08032     -0.39822 *
 * O              48     -0.05536     -0.06408     -0.39473 *
 * O              49      1.67802     -1.79873      0.93886 *
 * O              50      0.69738      2.29705      0.96350 *
 * O              51     -2.34921     -0.54620      0.95442 *
 * O              52     -0.16983     -0.01278     -0.79573 *
 * O              53      0.09221     -0.13713     -0.79211 *
 * O              54      0.07557      0.15190     -0.79856 *
 * O              55      0.16467      0.02531      0.85090 *
 * O              56     -0.09883      0.12768      0.84494 *
 * O              57     -0.06189     -0.15324      0.85305 *
 * O              58     -0.09830      0.02290      0.39365 *
 * O              59      0.01948     -0.09717      0.39803 *
 * O              60      0.07744      0.07179      0.39629 *
 * O              61     -1.63784      1.73173     -1.01988 *
 * O              62     -0.69916     -2.31330     -1.00646 *
 * O              63      2.35419      0.55377     -1.02289 *
 * O              64      0.08274     -0.01677     -0.39652 *
 * O              65     -0.02346      0.07976     -0.40362 *
 * O              66     -0.05928     -0.06366     -0.39927 *
 * O              67      1.66154     -1.77082      0.95572 *
 * O              68      0.70499      2.32033      0.96114 *
 * O              69     -2.38605     -0.55229      0.95051 *
 * O              70     -0.17782     -0.01121     -0.80051 *
 * O              71      0.09727     -0.13760     -0.80246 *
 * O              72      0.07499      0.15032     -0.79921 *
 * O              73      0.16201      0.02702      0.85403 *
 * O              74     -0.10001      0.12671      0.84701 *
 * O              75     -0.06191     -0.14936      0.84881 *
 * O              76     -0.09988      0.02550      0.39285 *
 * O              77      0.02408     -0.09556      0.39545 *
 * O              78      0.07154      0.07776      0.39153 *
 * O              79     -1.66274      1.76407     -1.01369 *
 * O              80     -0.70774     -2.33902     -1.01066 *
 * O              81      2.34015      0.56122     -1.03222 *
 * O              82      0.08264     -0.01514     -0.39595 *
 * O              83     -0.02563      0.08090     -0.40389 *
 * O              84     -0.05733     -0.06229     -0.39526 *
 * O              85      1.66583     -1.78837      0.94118 *
 * O              86      0.69679      2.30128      0.96799 *
 * O              87     -2.35525     -0.54491      0.95595 *
 * O              88     -0.16855     -0.00752     -0.79433 *
 * O              89      0.09543     -0.13991     -0.78943 *
 * O              90      0.07484      0.15189     -0.80119 *
 * O              91      0.16392      0.02311      0.84501 *
 * O              92     -0.09823      0.12706      0.84753 *
 * O              93     -0.06029     -0.14883      0.84832 *
 * O              94     -0.09704      0.02465      0.39525 *
 * O              95      0.02062     -0.09897      0.39198 *
 * O              96      0.07598      0.07532      0.39221 *
 * O              97     -1.65742      1.77304     -1.00488 *
 * O              98     -0.69022     -2.31176     -1.01680 *
 * O              99      2.32904      0.55165     -1.02626 *
 * O             100      0.08318     -0.01209     -0.39520 *
 * O             101     -0.01971      0.08157     -0.39862 *
 * O             102     -0.05984     -0.06368     -0.39806 *
 * O             103      1.66641     -1.78479      0.95048 *
 * O             104      0.68760      2.29251      0.96572 *
 * O             105     -2.34594     -0.54852      0.96881 *
 * O             106     -0.17194     -0.01048     -0.80111 *
 * O             107      0.09959     -0.13989     -0.79235 *
 * O             108      0.07242      0.15050     -0.79367 *
 * O             109      0.15911      0.02027      0.85209 *
 * O             110     -0.10381      0.12878      0.84809 *
 * O             111     -0.05910     -0.14978      0.85014 *
 * O             112     -0.09771      0.03094      0.39303 *
 * O             113      0.02694     -0.09764      0.39338 *
 * O             114      0.07688      0.07496      0.39485 *
 * O             115     -1.67119      1.77707     -1.01427 *
 * O             116     -0.70556     -2.32109     -1.01402 *
 * O             117      2.33963      0.55654     -1.03361 *
 * O             118      0.08395     -0.01690     -0.39920 *
 * O             119     -0.02384      0.08087     -0.39768 *
 * O             120     -0.05377     -0.06013     -0.39711 *
 * O             121      1.65077     -1.76118      0.95047 *
 * O             122      0.70476      2.30776      0.96428 *
 * O             123     -2.38669     -0.54453      0.94638 *
 * O             124     -0.17134     -0.01188     -0.79697 *
 * O             125      0.09811     -0.13480     -0.79715 *
 * O             126      0.08111      0.15348     -0.79737 *
 * O             127      0.16084      0.02788      0.85203 *
 * O             128     -0.09723      0.12539      0.85168 *
 * O             129     -0.05713     -0.15446      0.84693 *
 * O             130     -0.09451      0.02598      0.39276 *
 * O             131      0.02545     -0.09723      0.39635 *
 * O             132      0.07798      0.07252      0.38807 *
 * O             133     -1.63832      1.73767     -1.02648 *
 * O             134     -0.69480     -2.31056     -1.02860 *
 * O             135      2.32008      0.55621     -1.03089 *
 * O             136      0.08619     -0.01601     -0.40106 *
 * O             137     -0.02336      0.08240     -0.40236 *
 * O             138     -0.06152     -0.06241     -0.40119 *
 * O             139      1.66539     -1.79707      0.94294 *
 * O             140      0.71292      2.32907      0.95956 *
 * O             141     -2.33086     -0.54820      0.96853 *
 * O             142     -0.16965     -0.01271     -0.80308 *
 * O             143      0.09617     -0.14313     -0.79815 *
 * O             144      0.07400      0.14725     -0.79554 *
 * O             145      0.16590      0.02437      0.85489 *
 * O             146     -0.09807      0.12791      0.85027 *
 * O             147     -0.05379     -0.14938      0.84898 *
 * O             148     -0.09993      0.02431      0.39928 *
 * O             149      0.02865     -0.09201      0.39445 *
 * O             150      0.07565      0.07721      0.39525 *
 * O             151     -1.66883      1.76974     -1.00973 *
 * O             152     -0.71033     -2.34628     -1.00527 *
 * O             153      2.33831      0.56223     -1.03525 *
 * O             154      0.08976     -0.01914     -0.39643 *
 * O             155     -0.02736      0.08223     -0.39787 *
 * O             156     -0.05649     -0.06186     -0.39559 *
 * O             157      1.64608     -1.76408      0.95360 *
 * O             158      0.70819      2.31549      0.95589 *
 * O             159     -2.33797     -0.54848      0.95716 *
 * O             160     -0.17054     -0.01246     -0.80235 *
 * O             161      0.09541     -0.13660     -0.79771 *
 * O             162      0.06980      0.15338     -0.79799 *
 * Al              1      0.00035      0.00077     -0.01033 *
 * Al              2      0.00392     -0.00462     -0.85497 *
 * Al              3      0.00432      0.00555     -1.96801 *
 * Al              4      0.00080      0.00128     -0.22116 *
 * Al              5      0.00062      0.00088     -0.08337 *
 * Al              6      0.00133      0.00086      0.08608 *
 * Al              7     -0.02139      0.00293     -7.28910 *
 * Al              8     -0.00346      0.00008      7.29197 *
 * Al              9      0.00072      0.00098      0.01586 *
 * Al             10      0.00108      0.00099      0.24218 *
 * Al             11      0.00516     -0.01088      0.86138 *
 * Al             12      0.00478     -0.00462      1.96743 *
 * Al             13      0.00035      0.00061     -0.01030 *
 * Al             14     -0.00930     -0.00710     -0.84946 *
 * Al             15      0.00953      0.00026     -1.96156 *
 * Al             16      0.00064      0.00091     -0.22093 *
 * Al             17      0.00050      0.00047     -0.08355 *
 * Al             18      0.00110      0.00079      0.08612 *
 * Al             19      0.01566      0.00632     -7.28662 *
 * Al             20     -0.01659      0.01766      7.28996 *
 * Al             21      0.00117      0.00097      0.01632 *
 * Al             22      0.00051      0.00093      0.24247 *
 * Al             23     -0.01207      0.00686      0.85523 *
 * Al             24     -0.00124      0.00577      1.97758 *
 * Al             25      0.00055      0.00073     -0.01005 *
 * Al             26      0.01082     -0.01303     -0.85457 *
 * Al             27      0.00468      0.00713     -1.96918 *
 * Al             28      0.00058      0.00112     -0.22089 *
 * Al             29      0.00034      0.00061     -0.08349 *
 * Al             30      0.00067      0.00077      0.08610 *
 * Al             31     -0.00134     -0.02499     -7.28715 *
 * Al             32     -0.00658     -0.00134      7.29134 *
 * Al             33      0.00061      0.00037      0.01621 *
 * Al             34      0.00118      0.00064      0.24183 *
 * Al             35      0.01450      0.00590      0.86131 *
 * Al             36     -0.00946      0.00854      1.97502 *
 * Al             37      0.00087      0.00126     -0.00977 *
 * Al             38      0.01353     -0.00580     -0.86211 *
 * Al             39     -0.00478      0.00221     -1.97189 *
 * Al             40      0.00063      0.00057     -0.22091 *
 * Al             41      0.00025      0.00045     -0.08353 *
 * Al             42      0.00061      0.00103      0.08607 *
 * Al             43     -0.02544     -0.00115     -7.28842 *
 * Al             44     -0.01813     -0.01802      7.29132 *
 * Al             45      0.00136      0.00050      0.01654 *
 * Al             46      0.00070      0.00052      0.24199 *
 * Al             47      0.02270     -0.01072      0.85222 *
 * Al             48      0.00557      0.00511      1.96983 *
 * Al             49      0.00008      0.00110     -0.00953 *
 * Al             50      0.00346     -0.00700     -0.85724 *
 * Al             51      0.00152      0.00887     -1.96275 *
 * Al             52      0.00066      0.00102     -0.22074 *
 * Al             53     -0.00009      0.00101     -0.08363 *
 * Al             54      0.00102      0.00087      0.08619 *
 * Al             55      0.01161     -0.01185     -7.28898 *
 * Al             56     -0.00072      0.00496      7.29325 *
 * Al             57      0.00116      0.00084      0.01628 *
 * Al             58      0.00074      0.00112      0.24237 *
 * Al             59     -0.00008      0.00073      0.86105 *
 * Al             60     -0.00394      0.00547      1.97605 *
 * Al             61      0.00056      0.00045     -0.00975 *
 * Al             62      0.00081     -0.01017     -0.85201 *
 * Al             63      0.00757     -0.00007     -1.96937 *
 * Al             64      0.00123      0.00082     -0.22076 *
 * Al             65      0.00039      0.00032     -0.08363 *
 * Al             66      0.00084      0.00117      0.08638 *
 * Al             67      0.00191     -0.01691     -7.28858 *
 * Al             68     -0.00791      0.01462      7.29145 *
 * Al             69      0.00084      0.00076      0.01607 *
 * Al             70      0.00080      0.00106      0.24192 *
 * Al             71      0.00850      0.00204      0.86219 *
 * Al             72     -0.00520      0.00923      1.97822 *
 * Al             73      0.00061      0.00062     -0.00981 *
 * Al             74     -0.00753     -0.00886     -0.85640 *
 * Al             75      0.00605      0.00165     -1.96263 *
 * Al             76      0.00082      0.00072     -0.22118 *
 * Al             77      0.00021      0.00041     -0.08391 *
 * Al             78      0.00099      0.00094      0.08617 *
 * Al             79     -0.00752      0.00795     -7.28896 *
 * Al             80      0.00171      0.00816      7.28966 *
 * Al             81      0.00058      0.00076      0.01639 *
 * Al             82      0.00086      0.00045      0.24201 *
 * Al             83      0.00801     -0.00855      0.85043 *
 * Al             84      0.00819      0.00713      1.97371 *
 * Al             85      0.00048      0.00077     -0.01035 *
 * Al             86      0.01890     -0.00024     -0.85246 *
 * Al             87      0.00109      0.00659     -1.97453 *
 * Al             88      0.00108      0.00116     -0.22114 *
 * Al             89      0.00060      0.00058     -0.08379 *
 * Al             90      0.00125      0.00056      0.08633 *
 * Al             91     -0.00373     -0.01343     -7.28813 *
 * Al             92     -0.01221     -0.01564      7.29166 *
 * Al             93      0.00090      0.00056      0.01606 *
 * Al             94      0.00137      0.00112      0.24216 *
 * Al             95      0.00678      0.00708      0.86550 *
 * Al             96     -0.00839     -0.00252      1.97244 *
 * Al             97      0.00079      0.00063     -0.00978 *
 * Al             98     -0.00679     -0.00307     -0.85493 *
 * Al             99      0.00593      0.00650     -1.96015 *
 * Al            100      0.00118      0.00118     -0.22095 *
 * Al            101      0.00063      0.00112     -0.08337 *
 * Al            102      0.00104      0.00086      0.08656 *
 * Al            103      0.01340      0.00516     -7.28830 *
 * Al            104     -0.01245      0.01144      7.29159 *
 * Al            105      0.00102      0.00087      0.01612 *
 * Al            106      0.00049      0.00063      0.24162 *
 * Al            107      0.00193      0.01249      0.85604 *
 * Al            108     -0.00126     -0.00061      1.97960 *
 *                                                          *
 ************************************************************

Writing analysis data to al3x3.castep_bin

Writing model to al3x3.check
 
 A BibTeX formatted list of references used in this run has been written to 
 al3x3.bib
 
Initialisation time =      3.31 s
Calculation time    =    629.14 s
Finalisation time   =      6.84 s
Total time          =    639.29 s
Peak Memory Use     = 1429900 kB
  
Overall parallel efficiency rating: Good (75%)                                  
  
Data was distributed by:-
G-vector (24-way); efficiency rating: Good (76%)                                
k-point (2-way); efficiency rating: Excellent (99%)                             
