 +-------------------------------------------------+
 |                                                 |
 |      CCC   AA    SSS  TTTTT  EEEEE  PPPP        |
 |     C     A  A  S       T    E      P   P       |
 |     C     AAAA   SS     T    EEE    PPPP        |
 |     C     A  A     S    T    E      P           |
 |      CCC  A  A  SSS     T    EEEEE  P           |
 |                                                 |
 +-------------------------------------------------+
 |                                                 |
 | Welcome to Academic Release CASTEP version 17.21|          
 | Ab Initio Total Energy Program                  |
 |                                                 |
 | Authors:                                        |
 | M. Segall, M. Probert, C. Pickard, P. Hasnip,   |
 | S. Clark, K. Refson, J. R. Yates, M. Payne      |
 |                                                 |
 | Contributors:                                   |
 | P. Lindan, P. Haynes, J. White, V. Milman,      |
 | N. Govind, M. Gibson, P. Tulip, V. Cocula,      |
 | B. Montanari, D. Quigley, M. Glover,            |
 | L. Bernasconi, A. Perlov, M. Plummer,           |
 | E. McNellis, J. Meyer, J. Gale, D. Jochym       |
 | J. Aarons, B. Walker, R. Gillen, D. Jones       |
 | T. Green, I. J. Bush, C. J. Armstrong,          |
 | E. J. Higgins, E. L. Brown, M. S. McFly,        |
 | J. Wilkins, B-C. Shih, P. J. P. Byrne           |
 |                                                 |
 | Copyright (c) 2000 - 2017                       |
 |                                                 |
 |     Distributed under the terms of an           |
 |     Agreement between the United Kingdom        |
 |     Car-Parrinello (UKCP) Consortium,           |
 |     Daresbury Laboratory and Accelrys, Inc.     |
 |                                                 |
 | Please cite                                     |
 |                                                 |
 |     "First principles methods using CASTEP"     |
 |                                                 |
 |         Zeitschrift fuer Kristallographie       |
 |           220(5-6) pp. 567-570 (2005)           |
 |                                                 |
 | S. J. Clark, M. D. Segall, C. J. Pickard,       |
 | P. J. Hasnip, M. J. Probert, K. Refson,         |
 | M. C. Payne                                     |
 |                                                 |
 |       in all publications arising from          |
 |              your use of CASTEP                 |
 |                                                 |
 +-------------------------------------------------+


 Compiled for linux_x86_64_gfortran6.0 on Thu, 10 Aug 2017 10:56:10 +0000
 from code version 056e886bd5a1+ Castep172_branch Mon, 15 May 2017 14:45:35 +0100
 Compiler: GNU Fortran 6.3.0; Optimisation: fast
 MATHLIBS: Intel MKL(2017.0.2) (LAPACK version 3.7.0)
 FFT Lib : mkl
 Fundamental constants values: CODATA 2010

 Run started: Thu, 10 Aug 2017 12:10:29 +0100

 Pseudo atomic calculation performed for O 2s2 2p4

 Converged in 13 iterations to a total energy of -430.9846 eV


 Pseudo atomic calculation performed for Al 3s2 3p1

 Converged in 14 iterations to a total energy of -53.3906 eV

 Calculation parallelised over 56 processes.
 Data is distributed by G-vector(28-way) and k-point(2-way)

 ************************************ Title ************************************
 3x3 sapphire surface benchmark (v1.1)

 ***************************** General Parameters ******************************
  
 output verbosity                               : normal  (1)
 write checkpoint data to                       : al3x3.check
 type of calculation                            : single point energy
 stress calculation                             : off
 density difference calculation                 : off
 electron localisation func (ELF) calculation   : off
 Hirshfeld analysis                             : off
 unlimited duration calculation
 timing information                             : on
 memory usage estimate                          : on
 write final potential to formatted file        : off
 write final density to formatted file          : off
 write BibTeX reference list                    : on
 write OTFG pseudopotential files               : on
 write electrostatic potential file             : on
 write bands file                               : on
 checkpoint writing                             : both castep_bin and check files
  
 output         length unit                     : A
 output           mass unit                     : amu
 output           time unit                     : ps
 output         charge unit                     : e
 output           spin unit                     : hbar/2
 output         energy unit                     : eV
 output          force unit                     : eV/A
 output       velocity unit                     : A/ps
 output       pressure unit                     : GPa
 output     inv_length unit                     : 1/A
 output      frequency unit                     : cm-1
 output force constant unit                     : eV/A**2
 output         volume unit                     : A**3
 output   IR intensity unit                     : (D/A)**2/amu
 output         dipole unit                     : D
 output         efield unit                     : eV/A/e
 output        entropy unit                     : J/mol/K
  
 wavefunctions paging                           : none
 random number generator seed                   :          1
 data distribution                              : optimal for this architecture
 optimization strategy                          : maximize speed(+++)

 *********************** Exchange-Correlation Parameters ***********************
  
 using functional                               : Perdew Wang (1991)
 relativistic treatment                         : Koelling-Harmon
 DFT+D: Semi-empirical dispersion correction    : off

 ************************* Pseudopotential Parameters **************************
  
 pseudopotential representation                 : reciprocal space
 <beta|phi> representation                      : reciprocal space
 spin-orbit coupling                            : off

 **************************** Basis Set Parameters *****************************
  
 plane wave basis set cut-off                   :   400.0000   eV
 size of standard grid                          :     1.7500
 size of   fine   gmax                          :    17.9311   1/A
 finite basis set correction                    : none

 **************************** Electronic Parameters ****************************
  
 number of  electrons                           :  1296.    
 net charge of system                           :  0.000    
 treating system as non-spin-polarized
 number of bands                                :        768

 ********************* Electronic Minimization Parameters **********************
  
 Method: Treating system as metallic with density mixing treatment of electrons,
         and number of  SD  steps               :          1
         and number of  CG  steps               :          4
  
 total energy / atom convergence tol.           : 0.1500E-01   eV
 eigen-energy convergence tolerance             : 0.1000E-05   eV
 max force / atom convergence tol.              : ignored
 convergence tolerance window                   :          3   cycles
 max. number of SCF cycles                      :         40
 smearing scheme                                : Gaussian
 smearing width                                 : 0.1000       eV
 Fermi energy convergence tolerance             : 0.2721E-13   eV
 periodic dipole correction                     : NONE

 ************************** Density Mixing Parameters **************************
  
 density-mixing scheme                          : Pulay
 max. length of mixing history                  :         20
 charge density mixing amplitude                : 0.8000    
 cut-off energy for mixing                      :  400.0       eV

 *******************************************************************************
  

                           -------------------------------
                                      Unit Cell
                           -------------------------------
        Real Lattice(A)                      Reciprocal Lattice(1/A)
  12.3642447  -7.1385000   0.0000000        0.5081738   0.0000000   0.0000000
   0.0000000  14.2770000   0.0000000        0.2540869   0.4400914   0.0000000
   0.0000000   0.0000000  27.5000000        0.0000000   0.0000000   0.2284795

                       Lattice parameters(A)       Cell Angles
                    a =   14.277000          alpha =   90.000000
                    b =   14.277000          beta  =   90.000000
                    c =   27.500000          gamma =  120.000000

                       Current cell volume = 4854.418839       A**3
                                   density =    1.134206   AMU/A**3
                                           =    1.883393     g/cm^3

                           -------------------------------
                                     Cell Contents
                           -------------------------------
                         Total number of ions in cell =  270
                      Total number of species in cell =    2
                        Max number of any one species =  162

            xxxxxxxxxxxxxxxxxxxxxxxxxxxxxxxxxxxxxxxxxxxxxxxxxxxxxxxxxxxx
            x  Element    Atom        Fractional coordinates of atoms  x
            x            Number           u          v          w      x
            x----------------------------------------------------------x
            x  O            1         0.102000   0.000000   0.645700   x 
            x  O            2         0.000000   0.102000   0.645700   x 
            x  O            3         0.231333   0.231333   0.645700   x 
            x  O            4         0.009111   0.222222   0.724433   x 
            x  O            5         0.111111   0.120222   0.724433   x 
            x  O            6         0.213111   0.324222   0.724433   x 
            x  O            7         0.120222   0.111111   0.566967   x 
            x  O            8         0.222222   0.009111   0.566967   x 
            x  O            9         0.324222   0.213111   0.566967   x 
            x  O           10         0.324222   0.111111   0.803167   x 
            x  O           11         0.222222   0.213111   0.803167   x 
            x  O           12         0.120222   0.009111   0.803167   x 
            x  O           13         0.213111   0.222222   0.960633   x 
            x  O           14         0.111111   0.324222   0.960633   x 
            x  O           15         0.009111   0.120222   0.960633   x 
            x  O           16         0.231333   0.000000   0.881900   x 
            x  O           17         0.000000   0.231333   0.881900   x 
            x  O           18         0.102000   0.102000   0.881900   x 
            x  O           19         0.102000   0.333333   0.645700   x 
            x  O           20         0.000000   0.435333   0.645700   x 
            x  O           21         0.231333   0.564667   0.645700   x 
            x  O           22         0.009111   0.555556   0.724433   x 
            x  O           23         0.111111   0.453556   0.724433   x 
            x  O           24         0.213111   0.657556   0.724433   x 
            x  O           25         0.120222   0.444444   0.566967   x 
            x  O           26         0.222222   0.342444   0.566967   x 
            x  O           27         0.324222   0.546444   0.566967   x 
            x  O           28         0.324222   0.444444   0.803167   x 
            x  O           29         0.222222   0.546444   0.803167   x 
            x  O           30         0.120222   0.342444   0.803167   x 
            x  O           31         0.213111   0.555556   0.960633   x 
            x  O           32         0.111111   0.657556   0.960633   x 
            x  O           33         0.009111   0.453556   0.960633   x 
            x  O           34         0.231333   0.333333   0.881900   x 
            x  O           35         0.000000   0.564667   0.881900   x 
            x  O           36         0.102000   0.435333   0.881900   x 
            x  O           37         0.102000   0.666667   0.645700   x 
            x  O           38         0.000000   0.768667   0.645700   x 
            x  O           39         0.231333   0.898000   0.645700   x 
            x  O           40         0.009111   0.888889   0.724433   x 
            x  O           41         0.111111   0.786889   0.724433   x 
            x  O           42         0.213111   0.990889   0.724433   x 
            x  O           43         0.120222   0.777778   0.566967   x 
            x  O           44         0.222222   0.675778   0.566967   x 
            x  O           45         0.324222   0.879778   0.566967   x 
            x  O           46         0.324222   0.777778   0.803167   x 
            x  O           47         0.222222   0.879778   0.803167   x 
            x  O           48         0.120222   0.675778   0.803167   x 
            x  O           49         0.213111   0.888889   0.960633   x 
            x  O           50         0.111111   0.990889   0.960633   x 
            x  O           51         0.009111   0.786889   0.960633   x 
            x  O           52         0.231333   0.666667   0.881900   x 
            x  O           53         0.000000   0.898000   0.881900   x 
            x  O           54         0.102000   0.768667   0.881900   x 
            x  O           55         0.435333   0.000000   0.645700   x 
            x  O           56         0.333333   0.102000   0.645700   x 
            x  O           57         0.564667   0.231333   0.645700   x 
            x  O           58         0.342444   0.222222   0.724433   x 
            x  O           59         0.444444   0.120222   0.724433   x 
            x  O           60         0.546444   0.324222   0.724433   x 
            x  O           61         0.453556   0.111111   0.566967   x 
            x  O           62         0.555556   0.009111   0.566967   x 
            x  O           63         0.657556   0.213111   0.566967   x 
            x  O           64         0.657556   0.111111   0.803167   x 
            x  O           65         0.555556   0.213111   0.803167   x 
            x  O           66         0.453556   0.009111   0.803167   x 
            x  O           67         0.546444   0.222222   0.960633   x 
            x  O           68         0.444444   0.324222   0.960633   x 
            x  O           69         0.342444   0.120222   0.960633   x 
            x  O           70         0.564667   0.000000   0.881900   x 
            x  O           71         0.333333   0.231333   0.881900   x 
            x  O           72         0.435333   0.102000   0.881900   x 
            x  O           73         0.435333   0.333333   0.645700   x 
            x  O           74         0.333333   0.435333   0.645700   x 
            x  O           75         0.564667   0.564667   0.645700   x 
            x  O           76         0.342444   0.555556   0.724433   x 
            x  O           77         0.444444   0.453556   0.724433   x 
            x  O           78         0.546444   0.657556   0.724433   x 
            x  O           79         0.453556   0.444444   0.566967   x 
            x  O           80         0.555556   0.342444   0.566967   x 
            x  O           81         0.657556   0.546444   0.566967   x 
            x  O           82         0.657556   0.444444   0.803167   x 
            x  O           83         0.555556   0.546444   0.803167   x 
            x  O           84         0.453556   0.342444   0.803167   x 
            x  O           85         0.546444   0.555556   0.960633   x 
            x  O           86         0.444444   0.657556   0.960633   x 
            x  O           87         0.342444   0.453556   0.960633   x 
            x  O           88         0.564667   0.333333   0.881900   x 
            x  O           89         0.333333   0.564667   0.881900   x 
            x  O           90         0.435333   0.435333   0.881900   x 
            x  O           91         0.435333   0.666667   0.645700   x 
            x  O           92         0.333333   0.768667   0.645700   x 
            x  O           93         0.564667   0.898000   0.645700   x 
            x  O           94         0.342444   0.888889   0.724433   x 
            x  O           95         0.444444   0.786889   0.724433   x 
            x  O           96         0.546444   0.990889   0.724433   x 
            x  O           97         0.453556   0.777778   0.566967   x 
            x  O           98         0.555556   0.675778   0.566967   x 
            x  O           99         0.657556   0.879778   0.566967   x 
            x  O          100         0.657556   0.777778   0.803167   x 
            x  O          101         0.555556   0.879778   0.803167   x 
            x  O          102         0.453556   0.675778   0.803167   x 
            x  O          103         0.546444   0.888889   0.960633   x 
            x  O          104         0.444444   0.990889   0.960633   x 
            x  O          105         0.342444   0.786889   0.960633   x 
            x  O          106         0.564667   0.666667   0.881900   x 
            x  O          107         0.333333   0.898000   0.881900   x 
            x  O          108         0.435333   0.768667   0.881900   x 
            x  O          109         0.768667   0.000000   0.645700   x 
            x  O          110         0.666667   0.102000   0.645700   x 
            x  O          111         0.898000   0.231333   0.645700   x 
            x  O          112         0.675778   0.222222   0.724433   x 
            x  O          113         0.777778   0.120222   0.724433   x 
            x  O          114         0.879778   0.324222   0.724433   x 
            x  O          115         0.786889   0.111111   0.566967   x 
            x  O          116         0.888889   0.009111   0.566967   x 
            x  O          117         0.990889   0.213111   0.566967   x 
            x  O          118         0.990889   0.111111   0.803167   x 
            x  O          119         0.888889   0.213111   0.803167   x 
            x  O          120         0.786889   0.009111   0.803167   x 
            x  O          121         0.879778   0.222222   0.960633   x 
            x  O          122         0.777778   0.324222   0.960633   x 
            x  O          123         0.675778   0.120222   0.960633   x 
            x  O          124         0.898000   0.000000   0.881900   x 
            x  O          125         0.666667   0.231333   0.881900   x 
            x  O          126         0.768667   0.102000   0.881900   x 
            x  O          127         0.768667   0.333333   0.645700   x 
            x  O          128         0.666667   0.435333   0.645700   x 
            x  O          129         0.898000   0.564667   0.645700   x 
            x  O          130         0.675778   0.555556   0.724433   x 
            x  O          131         0.777778   0.453556   0.724433   x 
            x  O          132         0.879778   0.657556   0.724433   x 
            x  O          133         0.786889   0.444444   0.566967   x 
            x  O          134         0.888889   0.342444   0.566967   x 
            x  O          135         0.990889   0.546444   0.566967   x 
            x  O          136         0.990889   0.444444   0.803167   x 
            x  O          137         0.888889   0.546444   0.803167   x 
            x  O          138         0.786889   0.342444   0.803167   x 
            x  O          139         0.879778   0.555556   0.960633   x 
            x  O          140         0.777778   0.657556   0.960633   x 
            x  O          141         0.675778   0.453556   0.960633   x 
            x  O          142         0.898000   0.333333   0.881900   x 
            x  O          143         0.666667   0.564667   0.881900   x 
            x  O          144         0.768667   0.435333   0.881900   x 
            x  O          145         0.768667   0.666667   0.645700   x 
            x  O          146         0.666667   0.768667   0.645700   x 
            x  O          147         0.898000   0.898000   0.645700   x 
            x  O          148         0.675778   0.888889   0.724433   x 
            x  O          149         0.777778   0.786889   0.724433   x 
            x  O          150         0.879778   0.990889   0.724433   x 
            x  O          151         0.786889   0.777778   0.566967   x 
            x  O          152         0.888889   0.675778   0.566967   x 
            x  O          153         0.990889   0.879778   0.566967   x 
            x  O          154         0.990889   0.777778   0.803167   x 
            x  O          155         0.888889   0.879778   0.803167   x 
            x  O          156         0.786889   0.675778   0.803167   x 
            x  O          157         0.879778   0.888889   0.960633   x 
            x  O          158         0.777778   0.990889   0.960633   x 
            x  O          159         0.675778   0.786889   0.960633   x 
            x  O          160         0.898000   0.666667   0.881900   x 
            x  O          161         0.666667   0.898000   0.881900   x 
            x  O          162         0.768667   0.768667   0.881900   x 
            x  Al           1         0.000000   0.000000   0.693885   x 
            x  Al           2         0.000000   0.000000   0.597515   x 
            x  Al           3         0.222222   0.111111   0.615151   x 
            x  Al           4         0.111111   0.222222   0.676249   x 
            x  Al           5         0.222222   0.111111   0.754982   x 
            x  Al           6         0.111111   0.222222   0.772618   x 
            x  Al           7         0.222222   0.111111   0.991182   x 
            x  Al           8         0.111111   0.222222   0.536418   x 
            x  Al           9         0.000000   0.000000   0.833715   x 
            x  Al          10         0.222222   0.111111   0.851351   x 
            x  Al          11         0.000000   0.000000   0.930085   x 
            x  Al          12         0.111111   0.222222   0.912449   x 
            x  Al          13         0.000000   0.333333   0.693885   x 
            x  Al          14         0.000000   0.333333   0.597515   x 
            x  Al          15         0.222222   0.444444   0.615151   x 
            x  Al          16         0.111111   0.555556   0.676249   x 
            x  Al          17         0.222222   0.444444   0.754982   x 
            x  Al          18         0.111111   0.555556   0.772618   x 
            x  Al          19         0.222222   0.444444   0.991182   x 
            x  Al          20         0.111111   0.555556   0.536418   x 
            x  Al          21         0.000000   0.333333   0.833715   x 
            x  Al          22         0.222222   0.444444   0.851351   x 
            x  Al          23         0.000000   0.333333   0.930085   x 
            x  Al          24         0.111111   0.555556   0.912449   x 
            x  Al          25         0.000000   0.666667   0.693885   x 
            x  Al          26         0.000000   0.666667   0.597515   x 
            x  Al          27         0.222222   0.777778   0.615151   x 
            x  Al          28         0.111111   0.888889   0.676249   x 
            x  Al          29         0.222222   0.777778   0.754982   x 
            x  Al          30         0.111111   0.888889   0.772618   x 
            x  Al          31         0.222222   0.777778   0.991182   x 
            x  Al          32         0.111111   0.888889   0.536418   x 
            x  Al          33         0.000000   0.666667   0.833715   x 
            x  Al          34         0.222222   0.777778   0.851351   x 
            x  Al          35         0.000000   0.666667   0.930085   x 
            x  Al          36         0.111111   0.888889   0.912449   x 
            x  Al          37         0.333333   0.000000   0.693885   x 
            x  Al          38         0.333333   0.000000   0.597515   x 
            x  Al          39         0.555556   0.111111   0.615151   x 
            x  Al          40         0.444444   0.222222   0.676249   x 
            x  Al          41         0.555556   0.111111   0.754982   x 
            x  Al          42         0.444444   0.222222   0.772618   x 
            x  Al          43         0.555556   0.111111   0.991182   x 
            x  Al          44         0.444444   0.222222   0.536418   x 
            x  Al          45         0.333333   0.000000   0.833715   x 
            x  Al          46         0.555556   0.111111   0.851351   x 
            x  Al          47         0.333333   0.000000   0.930085   x 
            x  Al          48         0.444444   0.222222   0.912449   x 
            x  Al          49         0.333333   0.333333   0.693885   x 
            x  Al          50         0.333333   0.333333   0.597515   x 
            x  Al          51         0.555556   0.444444   0.615151   x 
            x  Al          52         0.444444   0.555556   0.676249   x 
            x  Al          53         0.555556   0.444444   0.754982   x 
            x  Al          54         0.444444   0.555556   0.772618   x 
            x  Al          55         0.555556   0.444444   0.991182   x 
            x  Al          56         0.444444   0.555556   0.536418   x 
            x  Al          57         0.333333   0.333333   0.833715   x 
            x  Al          58         0.555556   0.444444   0.851351   x 
            x  Al          59         0.333333   0.333333   0.930085   x 
            x  Al          60         0.444444   0.555556   0.912449   x 
            x  Al          61         0.333333   0.666667   0.693885   x 
            x  Al          62         0.333333   0.666667   0.597515   x 
            x  Al          63         0.555556   0.777778   0.615151   x 
            x  Al          64         0.444444   0.888889   0.676249   x 
            x  Al          65         0.555556   0.777778   0.754982   x 
            x  Al          66         0.444444   0.888889   0.772618   x 
            x  Al          67         0.555556   0.777778   0.991182   x 
            x  Al          68         0.444444   0.888889   0.536418   x 
            x  Al          69         0.333333   0.666667   0.833715   x 
            x  Al          70         0.555556   0.777778   0.851351   x 
            x  Al          71         0.333333   0.666667   0.930085   x 
            x  Al          72         0.444444   0.888889   0.912449   x 
            x  Al          73         0.666667   0.000000   0.693885   x 
            x  Al          74         0.666667   0.000000   0.597515   x 
            x  Al          75         0.888889   0.111111   0.615151   x 
            x  Al          76         0.777778   0.222222   0.676249   x 
            x  Al          77         0.888889   0.111111   0.754982   x 
            x  Al          78         0.777778   0.222222   0.772618   x 
            x  Al          79         0.888889   0.111111   0.991182   x 
            x  Al          80         0.777778   0.222222   0.536418   x 
            x  Al          81         0.666667   0.000000   0.833715   x 
            x  Al          82         0.888889   0.111111   0.851351   x 
            x  Al          83         0.666667   0.000000   0.930085   x 
            x  Al          84         0.777778   0.222222   0.912449   x 
            x  Al          85         0.666667   0.333333   0.693885   x 
            x  Al          86         0.666667   0.333333   0.597515   x 
            x  Al          87         0.888889   0.444444   0.615151   x 
            x  Al          88         0.777778   0.555556   0.676249   x 
            x  Al          89         0.888889   0.444444   0.754982   x 
            x  Al          90         0.777778   0.555556   0.772618   x 
            x  Al          91         0.888889   0.444444   0.991182   x 
            x  Al          92         0.777778   0.555556   0.536418   x 
            x  Al          93         0.666667   0.333333   0.833715   x 
            x  Al          94         0.888889   0.444444   0.851351   x 
            x  Al          95         0.666667   0.333333   0.930085   x 
            x  Al          96         0.777778   0.555556   0.912449   x 
            x  Al          97         0.666667   0.666667   0.693885   x 
            x  Al          98         0.666667   0.666667   0.597515   x 
            x  Al          99         0.888889   0.777778   0.615151   x 
            x  Al         100         0.777778   0.888889   0.676249   x 
            x  Al         101         0.888889   0.777778   0.754982   x 
            x  Al         102         0.777778   0.888889   0.772618   x 
            x  Al         103         0.888889   0.777778   0.991182   x 
            x  Al         104         0.777778   0.888889   0.536418   x 
            x  Al         105         0.666667   0.666667   0.833715   x 
            x  Al         106         0.888889   0.777778   0.851351   x 
            x  Al         107         0.666667   0.666667   0.930085   x 
            x  Al         108         0.777778   0.888889   0.912449   x 
            xxxxxxxxxxxxxxxxxxxxxxxxxxxxxxxxxxxxxxxxxxxxxxxxxxxxxxxxxxxx


                         No user defined ionic velocities

                           -------------------------------
                                   Details of Species
                           -------------------------------

                               Mass of species in AMU
                                    O   15.9994000
                                    Al   26.9815400

                          Electric Quadrupole Moment (Barn)
                                    O   -0.0255800 Isotope 17
                                    Al    0.1466000 Isotope 27

                          Files used for pseudopotentials:
                                    O O_00.usp
                                    Al Al_00.usp

                           -------------------------------
                              k-Points For BZ Sampling
                           -------------------------------
                       MP grid size for SCF calculation is  2  2  1
                            with an offset of   0.000  0.000  0.000
                       Number of kpoints used =             2

                           -------------------------------
                               Symmetry and Constraints
                           -------------------------------

                      Cell is a supercell containing 9 primitive cells
                      Maximum deviation from symmetry =  0.00000         ANG

                      Number of symmetry operations   =           1
                      Number of ionic constraints     =           3
                      Point group of crystal =     1: C1, 1, 1
                      Space group of crystal =   147: P-3, -P 3

             Set iprint > 1 for details on symmetry rotations/translations

                         Centre of mass is constrained
             Set iprint > 1 for details of linear ionic constraints

                         Number of cell constraints= 0
                         Cell constraints are:  1 2 3 4 5 6

                         External pressure/stress (GPa)
                          0.00000   0.00000   0.00000
                                    0.00000   0.00000
                                              0.00000
  
+---------------- MEMORY AND SCRATCH DISK ESTIMATES PER PROCESS --------------+
|                                                     Memory          Disk    |
| Baseline code, static data and system overhead      464.0 MB         0.0 MB |
| BLAS internal memory storage                          0.0 MB         0.0 MB |
| Model and support data                              198.8 MB         0.0 MB |
| Electronic energy minimisation requirements         172.5 MB         0.0 MB |
| Force calculation requirements                        5.4 MB         0.0 MB |
|                                               ----------------------------- |
| Approx. total storage required per process          835.3 MB         0.0 MB |
|                                                                             |
| Requirements will fluctuate during execution and may exceed these estimates |
+-----------------------------------------------------------------------------+
Calculating total energy with cut-off of  400.000 eV.
------------------------------------------------------------------------ <-- SCF
SCF loop      Energy           Fermi           Energy gain       Timer   <-- SCF
                               energy          per atom          (sec)   <-- SCF
------------------------------------------------------------------------ <-- SCF
Initial  -5.94002590E+004  0.00000000E+000                         7.23  <-- SCF
      1  -7.23954877E+004  4.02939057E+000   4.81304765E+001      64.42  <-- SCF
      2  -7.78254144E+004  1.97567465E+000   2.01108398E+001     102.26  <-- SCF
      3  -7.79864818E+004  1.80283786E+000   5.96546064E-001     140.19  <-- SCF
      4  -7.78412860E+004  1.95902144E+000  -5.37762472E-001     191.94  <-- SCF
      5  -7.77211127E+004  1.34880668E+000  -4.45086104E-001     242.52  <-- SCF
      6  -7.77152164E+004  1.12198216E+000  -2.18383429E-002     297.25  <-- SCF
      7  -7.77129446E+004  1.05276778E+000  -8.41400933E-003     347.99  <-- SCF
      8  -7.77104491E+004  1.02762444E+000  -9.24266855E-003     397.89  <-- SCF
      9  -7.77084279E+004  9.96567106E-001  -7.48575090E-003     448.07  <-- SCF
     10  -7.77059615E+004  1.11164262E+000  -9.13496480E-003     498.22  <-- SCF
     11  -7.77052022E+004  1.16315226E+000  -2.81195010E-003     546.66  <-- SCF
------------------------------------------------------------------------ <-- SCF
 
Final energy, E             =  -77705.20224582     eV
Final free energy (E-TS)    =  -77705.20224582     eV
(energies not corrected for finite basis set)
 
NB est. 0K energy (E-0.5TS)      =  -77705.20224582     eV
 

Writing analysis data to al3x3.castep_bin

Writing model to al3x3.check

 ******************* Unconstrained Forces *******************
 *                                                          *
 *               Cartesian components (eV/A)                *
 * -------------------------------------------------------- *
 *                         x            y            z      *
 *                                                          *
 * O               1      0.16447      0.02524      0.86482 *
 * O               2     -0.10240      0.11941      0.85960 *
 * O               3     -0.05630     -0.15000      0.86178 *
 * O               4     -0.09922      0.02276      0.39769 *
 * O               5      0.02374     -0.09640      0.40335 *
 * O               6      0.07867      0.07553      0.40258 *
 * O               7     -1.65399      1.75502     -1.01610 *
 * O               8     -0.68937     -2.30778     -1.01807 *
 * O               9      2.34316      0.55793     -1.01540 *
 * O              10      0.08532     -0.01159     -0.40589 *
 * O              11     -0.02101      0.08162     -0.41046 *
 * O              12     -0.05868     -0.05888     -0.40881 *
 * O              13      1.64731     -1.76902      0.94915 *
 * O              14      0.70334      2.31807      0.95600 *
 * O              15     -2.32655     -0.54345      0.96844 *
 * O              16     -0.17479     -0.01350     -0.81898 *
 * O              17      0.09857     -0.14261     -0.79982 *
 * O              18      0.07007      0.14838     -0.80281 *
 * O              19      0.16572      0.02418      0.86629 *
 * O              20     -0.10272      0.12710      0.86180 *
 * O              21     -0.05826     -0.14936      0.87054 *
 * O              22     -0.09831      0.02194      0.39951 *
 * O              23      0.01895     -0.09695      0.40094 *
 * O              24      0.07762      0.07517      0.40499 *
 * O              25     -1.65215      1.74887     -1.02403 *
 * O              26     -0.69563     -2.30783     -1.01565 *
 * O              27      2.33769      0.55373     -1.01229 *
 * O              28      0.08603     -0.01758     -0.40763 *
 * O              29     -0.02202      0.07572     -0.40284 *
 * O              30     -0.05589     -0.06431     -0.40531 *
 * O              31      1.65274     -1.78345      0.94548 *
 * O              32      0.70458      2.30882      0.95067 *
 * O              33     -2.37895     -0.54865      0.95595 *
 * O              34     -0.17886     -0.01602     -0.81279 *
 * O              35      0.09608     -0.14327     -0.80691 *
 * O              36      0.07724      0.15127     -0.81289 *
 * O              37      0.16137      0.02776      0.87020 *
 * O              38     -0.10461      0.12403      0.86144 *
 * O              39     -0.05946     -0.14987      0.86499 *
 * O              40     -0.09912      0.02263      0.40061 *
 * O              41      0.01944     -0.09913      0.40575 *
 * O              42      0.07907      0.07735      0.40019 *
 * O              43     -1.67061      1.76854     -1.01211 *
 * O              44     -0.69876     -2.32587     -1.01353 *
 * O              45      2.36376      0.55948     -1.01288 *
 * O              46      0.08212     -0.01705     -0.41203 *
 * O              47     -0.02475      0.07757     -0.41056 *
 * O              48     -0.05482     -0.06082     -0.40051 *
 * O              49      1.65241     -1.76943      0.94037 *
 * O              50      0.70910      2.33498      0.95008 *
 * O              51     -2.34569     -0.54900      0.95204 *
 * O              52     -0.17062     -0.00655     -0.81460 *
 * O              53      0.09010     -0.14071     -0.80918 *
 * O              54      0.06615      0.15144     -0.80572 *
 * O              55      0.16573      0.02446      0.86647 *
 * O              56     -0.10462      0.12402      0.86513 *
 * O              57     -0.05844     -0.14746      0.87048 *
 * O              58     -0.10221      0.02406      0.39972 *
 * O              59      0.02529     -0.09525      0.40336 *
 * O              60      0.07656      0.07972      0.39615 *
 * O              61     -1.67753      1.78000     -1.00534 *
 * O              62     -0.69451     -2.31850     -1.02373 *
 * O              63      2.38113      0.56022     -1.00879 *
 * O              64      0.08315     -0.01747     -0.40264 *
 * O              65     -0.02084      0.07905     -0.40896 *
 * O              66     -0.05883     -0.06285     -0.40252 *
 * O              67      1.66564     -1.78478      0.94012 *
 * O              68      0.70033      2.29140      0.96440 *
 * O              69     -2.39785     -0.54739      0.94315 *
 * O              70     -0.17462     -0.01821     -0.81795 *
 * O              71      0.09725     -0.13804     -0.81127 *
 * O              72      0.08186      0.14601     -0.81473 *
 * O              73      0.16693      0.02280      0.86883 *
 * O              74     -0.10423      0.12790      0.86399 *
 * O              75     -0.06107     -0.14434      0.86683 *
 * O              76     -0.10471      0.02819      0.40510 *
 * O              77      0.01832     -0.09324      0.40506 *
 * O              78      0.06957      0.07196      0.40131 *
 * O              79     -1.66188      1.76497     -0.99991 *
 * O              80     -0.68417     -2.29207     -1.02085 *
 * O              81      2.36262      0.55699     -1.00481 *
 * O              82      0.08297     -0.01155     -0.40166 *
 * O              83     -0.02698      0.07709     -0.40629 *
 * O              84     -0.05391     -0.06622     -0.40538 *
 * O              85      1.66915     -1.78633      0.94547 *
 * O              86      0.70446      2.30818      0.96224 *
 * O              87     -2.40726     -0.54689      0.93796 *
 * O              88     -0.17332     -0.01071     -0.81673 *
 * O              89      0.09528     -0.13785     -0.80892 *
 * O              90      0.07509      0.14680     -0.81230 *
 * O              91      0.16032      0.02489      0.86295 *
 * O              92     -0.09888      0.12009      0.86560 *
 * O              93     -0.05941     -0.14512      0.86252 *
 * O              94     -0.09725      0.02273      0.40570 *
 * O              95      0.01962     -0.09723      0.40490 *
 * O              96      0.07376      0.07024      0.40134 *
 * O              97     -1.64879      1.75418     -1.01189 *
 * O              98     -0.69204     -2.29194     -1.01787 *
 * O              99      2.34662      0.56137     -1.01794 *
 * O             100      0.08400     -0.01289     -0.40236 *
 * O             101     -0.02151      0.08034     -0.40623 *
 * O             102     -0.05371     -0.06155     -0.40645 *
 * O             103      1.65897     -1.77856      0.94747 *
 * O             104      0.70304      2.31215      0.95882 *
 * O             105     -2.35468     -0.55006      0.95005 *
 * O             106     -0.17437     -0.00729     -0.81332 *
 * O             107      0.09087     -0.13549     -0.80432 *
 * O             108      0.07053      0.14724     -0.80113 *
 * O             109      0.16421      0.01951      0.85863 *
 * O             110     -0.09996      0.12277      0.85933 *
 * O             111     -0.05882     -0.14676      0.86447 *
 * O             112     -0.09908      0.02578      0.40438 *
 * O             113      0.01868     -0.09961      0.40281 *
 * O             114      0.07361      0.06941      0.40349 *
 * O             115     -1.65554      1.74719     -1.01840 *
 * O             116     -0.69209     -2.29377     -1.02316 *
 * O             117      2.38341      0.55741     -0.99908 *
 * O             118      0.07308     -0.01575     -0.40356 *
 * O             119     -0.02605      0.08534     -0.40774 *
 * O             120     -0.05553     -0.06376     -0.40542 *
 * O             121      1.65580     -1.77900      0.94378 *
 * O             122      0.69515      2.29968      0.97008 *
 * O             123     -2.36048     -0.54919      0.95623 *
 * O             124     -0.16912     -0.01169     -0.81198 *
 * O             125      0.09635     -0.13628     -0.80966 *
 * O             126      0.07362      0.15305     -0.81327 *
 * O             127      0.16189      0.02921      0.86421 *
 * O             128     -0.10318      0.12452      0.85608 *
 * O             129     -0.06085     -0.15049      0.86714 *
 * O             130     -0.10247      0.02169      0.40268 *
 * O             131      0.02179     -0.10086      0.40034 *
 * O             132      0.07585      0.07985      0.39963 *
 * O             133     -1.62958      1.72807     -1.02074 *
 * O             134     -0.69544     -2.31766     -1.01644 *
 * O             135      2.37102      0.55739     -1.01369 *
 * O             136      0.08241     -0.01437     -0.40395 *
 * O             137     -0.02432      0.08044     -0.40955 *
 * O             138     -0.05682     -0.06012     -0.40686 *
 * O             139      1.67344     -1.80266      0.93092 *
 * O             140      0.70985      2.32709      0.95391 *
 * O             141     -2.36707     -0.54659      0.94949 *
 * O             142     -0.17477     -0.01588     -0.81265 *
 * O             143      0.10059     -0.13669     -0.81363 *
 * O             144      0.07513      0.15046     -0.81200 *
 * O             145      0.16472      0.02223      0.87455 *
 * O             146     -0.10532      0.12243      0.85842 *
 * O             147     -0.05925     -0.14395      0.86888 *
 * O             148     -0.10101      0.02087      0.39884 *
 * O             149      0.01563     -0.09550      0.40514 *
 * O             150      0.07721      0.07208      0.40059 *
 * O             151     -1.67593      1.78430     -0.99988 *
 * O             152     -0.69168     -2.30872     -1.01541 *
 * O             153      2.34056      0.56093     -1.03170 *
 * O             154      0.08546     -0.00855     -0.40267 *
 * O             155     -0.02637      0.08136     -0.40836 *
 * O             156     -0.05756     -0.06168     -0.40485 *
 * O             157      1.66614     -1.77882      0.94873 *
 * O             158      0.71505      2.34442      0.94098 *
 * O             159     -2.37452     -0.55354      0.95224 *
 * O             160     -0.16729     -0.00784     -0.81443 *
 * O             161      0.09067     -0.14091     -0.80766 *
 * O             162      0.07484      0.14870     -0.81230 *
 * Al              1     -0.00082     -0.00038      0.00106 *
 * Al              2     -0.00519      0.00300     -0.85509 *
 * Al              3     -0.00064     -0.00143     -1.96584 *
 * Al              4     -0.00015      0.00028     -0.21101 *
 * Al              5     -0.00010     -0.00033     -0.08457 *
 * Al              6      0.00006      0.00053      0.08735 *
 * Al              7     -0.00531      0.01216     -7.28174 *
 * Al              8      0.01525     -0.00582      7.28546 *
 * Al              9      0.00008     -0.00028      0.00473 *
 * Al             10     -0.00025      0.00002      0.23185 *
 * Al             11     -0.00207      0.01401      0.85376 *
 * Al             12     -0.00376     -0.00198      1.97747 *
 * Al             13     -0.00055     -0.00025      0.00148 *
 * Al             14      0.00355      0.01253     -0.84610 *
 * Al             15     -0.00094     -0.00011     -1.96663 *
 * Al             16     -0.00019      0.00041     -0.21102 *
 * Al             17     -0.00049     -0.00013     -0.08470 *
 * Al             18     -0.00007      0.00014      0.08770 *
 * Al             19     -0.01797      0.00277     -7.28145 *
 * Al             20      0.00631     -0.00786      7.28656 *
 * Al             21     -0.00038      0.00003      0.00476 *
 * Al             22     -0.00031     -0.00031      0.23178 *
 * Al             23      0.00255     -0.00629      0.85109 *
 * Al             24      0.00085      0.00473      1.96763 *
 * Al             25     -0.00088     -0.00029      0.00116 *
 * Al             26     -0.00497      0.00660     -0.84538 *
 * Al             27     -0.00028     -0.00167     -1.95785 *
 * Al             28     -0.00007      0.00053     -0.21097 *
 * Al             29     -0.00066     -0.00009     -0.08475 *
 * Al             30     -0.00011      0.00017      0.08712 *
 * Al             31      0.00146     -0.00484     -7.28622 *
 * Al             32      0.00028      0.00977      7.28833 *
 * Al             33     -0.00023     -0.00038      0.00460 *
 * Al             34     -0.00013     -0.00037      0.23167 *
 * Al             35      0.01247      0.01006      0.85423 *
 * Al             36     -0.00459     -0.00526      1.97134 *
 * Al             37     -0.00078     -0.00028      0.00122 *
 * Al             38     -0.01077      0.00185     -0.84592 *
 * Al             39     -0.00125     -0.00616     -1.95292 *
 * Al             40     -0.00033     -0.00010     -0.21075 *
 * Al             41     -0.00089      0.00032     -0.08478 *
 * Al             42     -0.00031      0.00004      0.08751 *
 * Al             43     -0.00446     -0.00928     -7.28424 *
 * Al             44      0.00827      0.02036      7.28833 *
 * Al             45     -0.00010      0.00016      0.00508 *
 * Al             46     -0.00045      0.00014      0.23234 *
 * Al             47      0.00200     -0.01177      0.85088 *
 * Al             48      0.00090      0.01076      1.96734 *
 * Al             49     -0.00080     -0.00057      0.00160 *
 * Al             50     -0.00531     -0.00160     -0.85074 *
 * Al             51     -0.00040     -0.00879     -1.96473 *
 * Al             52     -0.00053      0.00035     -0.21054 *
 * Al             53     -0.00061     -0.00026     -0.08451 *
 * Al             54     -0.00043      0.00002      0.08751 *
 * Al             55     -0.01064     -0.01174     -7.28664 *
 * Al             56      0.00255      0.00897      7.28823 *
 * Al             57     -0.00046      0.00004      0.00455 *
 * Al             58      0.00009     -0.00013      0.23142 *
 * Al             59      0.00440     -0.02124      0.85263 *
 * Al             60      0.00384      0.00942      1.96385 *
 * Al             61     -0.00069     -0.00066      0.00157 *
 * Al             62      0.00332     -0.00237     -0.85163 *
 * Al             63     -0.00134     -0.00330     -1.96659 *
 * Al             64     -0.00034      0.00047     -0.21074 *
 * Al             65     -0.00098     -0.00063     -0.08464 *
 * Al             66     -0.00046     -0.00004      0.08722 *
 * Al             67     -0.00941     -0.00712     -7.28501 *
 * Al             68      0.00440     -0.00497      7.28813 *
 * Al             69     -0.00028     -0.00035      0.00490 *
 * Al             70     -0.00042      0.00003      0.23193 *
 * Al             71      0.00703      0.00230      0.85650 *
 * Al             72     -0.00532      0.00279      1.97181 *
 * Al             73     -0.00023      0.00015      0.00112 *
 * Al             74      0.00365      0.00230     -0.85144 *
 * Al             75     -0.00780     -0.00708     -1.96314 *
 * Al             76     -0.00026      0.00023     -0.21092 *
 * Al             77     -0.00103     -0.00027     -0.08508 *
 * Al             78      0.00011      0.00008      0.08732 *
 * Al             79      0.01802     -0.00152     -7.28468 *
 * Al             80      0.01185     -0.01062      7.28626 *
 * Al             81     -0.00020     -0.00022      0.00550 *
 * Al             82     -0.00063      0.00038      0.23178 *
 * Al             83     -0.00232      0.00577      0.84757 *
 * Al             84     -0.00148      0.00593      1.97302 *
 * Al             85     -0.00060     -0.00031      0.00131 *
 * Al             86      0.00256      0.02210     -0.85542 *
 * Al             87     -0.01035      0.00112     -1.96425 *
 * Al             88     -0.00006      0.00019     -0.21047 *
 * Al             89     -0.00117     -0.00037     -0.08474 *
 * Al             90     -0.00027     -0.00025      0.08708 *
 * Al             91     -0.01346     -0.01459     -7.28308 *
 * Al             92      0.00729     -0.01478      7.28931 *
 * Al             93     -0.00015     -0.00027      0.00439 *
 * Al             94     -0.00028     -0.00029      0.23170 *
 * Al             95      0.01168     -0.00260      0.85405 *
 * Al             96     -0.00566      0.00235      1.96396 *
 * Al             97     -0.00062     -0.00023      0.00125 *
 * Al             98     -0.01350      0.00356     -0.84687 *
 * Al             99      0.00619     -0.00316     -1.96003 *
 * Al            100     -0.00007      0.00012     -0.21073 *
 * Al            101     -0.00073     -0.00025     -0.08526 *
 * Al            102      0.00027     -0.00034      0.08734 *
 * Al            103      0.01060     -0.00602     -7.28644 *
 * Al            104      0.00778      0.01737      7.28686 *
 * Al            105     -0.00024     -0.00026      0.00518 *
 * Al            106     -0.00037     -0.00004      0.23200 *
 * Al            107      0.00213     -0.00116      0.84894 *
 * Al            108     -0.00023     -0.00220      1.96341 *
 *                                                          *
 ************************************************************

 ******************** Constrained Forces ********************
 *                                                          *
 *               Cartesian components (eV/A)                *
 * -------------------------------------------------------- *
 *                         x            y            z      *
 *                                                          *
 * O               1      0.16447      0.02524      0.86482 *
 * O               2     -0.10240      0.11941      0.85960 *
 * O               3     -0.05630     -0.15000      0.86178 *
 * O               4     -0.09922      0.02276      0.39769 *
 * O               5      0.02374     -0.09640      0.40335 *
 * O               6      0.07867      0.07553      0.40258 *
 * O               7     -1.65399      1.75502     -1.01610 *
 * O               8     -0.68937     -2.30778     -1.01807 *
 * O               9      2.34316      0.55793     -1.01540 *
 * O              10      0.08532     -0.01159     -0.40589 *
 * O              11     -0.02101      0.08162     -0.41046 *
 * O              12     -0.05868     -0.05888     -0.40881 *
 * O              13      1.64731     -1.76902      0.94915 *
 * O              14      0.70334      2.31807      0.95600 *
 * O              15     -2.32655     -0.54345      0.96844 *
 * O              16     -0.17479     -0.01350     -0.81898 *
 * O              17      0.09857     -0.14261     -0.79982 *
 * O              18      0.07007      0.14838     -0.80281 *
 * O              19      0.16572      0.02418      0.86629 *
 * O              20     -0.10272      0.12710      0.86180 *
 * O              21     -0.05826     -0.14936      0.87054 *
 * O              22     -0.09831      0.02194      0.39951 *
 * O              23      0.01895     -0.09695      0.40094 *
 * O              24      0.07762      0.07517      0.40499 *
 * O              25     -1.65215      1.74887     -1.02403 *
 * O              26     -0.69563     -2.30783     -1.01565 *
 * O              27      2.33769      0.55373     -1.01229 *
 * O              28      0.08603     -0.01758     -0.40763 *
 * O              29     -0.02202      0.07572     -0.40284 *
 * O              30     -0.05589     -0.06431     -0.40531 *
 * O              31      1.65274     -1.78345      0.94548 *
 * O              32      0.70458      2.30882      0.95067 *
 * O              33     -2.37895     -0.54865      0.95595 *
 * O              34     -0.17886     -0.01602     -0.81279 *
 * O              35      0.09608     -0.14327     -0.80691 *
 * O              36      0.07724      0.15127     -0.81289 *
 * O              37      0.16137      0.02776      0.87020 *
 * O              38     -0.10461      0.12403      0.86144 *
 * O              39     -0.05946     -0.14987      0.86499 *
 * O              40     -0.09912      0.02263      0.40061 *
 * O              41      0.01944     -0.09913      0.40575 *
 * O              42      0.07907      0.07735      0.40019 *
 * O              43     -1.67061      1.76854     -1.01211 *
 * O              44     -0.69876     -2.32587     -1.01353 *
 * O              45      2.36376      0.55948     -1.01288 *
 * O              46      0.08212     -0.01705     -0.41203 *
 * O              47     -0.02475      0.07757     -0.41056 *
 * O              48     -0.05482     -0.06082     -0.40051 *
 * O              49      1.65241     -1.76943      0.94037 *
 * O              50      0.70910      2.33498      0.95008 *
 * O              51     -2.34569     -0.54900      0.95204 *
 * O              52     -0.17062     -0.00655     -0.81460 *
 * O              53      0.09010     -0.14071     -0.80918 *
 * O              54      0.06615      0.15144     -0.80572 *
 * O              55      0.16573      0.02446      0.86647 *
 * O              56     -0.10462      0.12402      0.86513 *
 * O              57     -0.05844     -0.14746      0.87048 *
 * O              58     -0.10221      0.02406      0.39972 *
 * O              59      0.02529     -0.09525      0.40336 *
 * O              60      0.07656      0.07972      0.39615 *
 * O              61     -1.67753      1.78000     -1.00534 *
 * O              62     -0.69451     -2.31850     -1.02373 *
 * O              63      2.38113      0.56022     -1.00879 *
 * O              64      0.08315     -0.01747     -0.40264 *
 * O              65     -0.02084      0.07905     -0.40896 *
 * O              66     -0.05883     -0.06285     -0.40252 *
 * O              67      1.66564     -1.78478      0.94012 *
 * O              68      0.70033      2.29140      0.96440 *
 * O              69     -2.39785     -0.54739      0.94315 *
 * O              70     -0.17462     -0.01821     -0.81795 *
 * O              71      0.09725     -0.13804     -0.81127 *
 * O              72      0.08186      0.14601     -0.81473 *
 * O              73      0.16693      0.02280      0.86883 *
 * O              74     -0.10423      0.12790      0.86399 *
 * O              75     -0.06107     -0.14434      0.86683 *
 * O              76     -0.10471      0.02819      0.40510 *
 * O              77      0.01832     -0.09324      0.40506 *
 * O              78      0.06957      0.07196      0.40131 *
 * O              79     -1.66188      1.76497     -0.99991 *
 * O              80     -0.68417     -2.29207     -1.02085 *
 * O              81      2.36262      0.55699     -1.00481 *
 * O              82      0.08297     -0.01155     -0.40166 *
 * O              83     -0.02698      0.07709     -0.40629 *
 * O              84     -0.05391     -0.06622     -0.40538 *
 * O              85      1.66915     -1.78633      0.94547 *
 * O              86      0.70446      2.30818      0.96224 *
 * O              87     -2.40726     -0.54689      0.93796 *
 * O              88     -0.17332     -0.01071     -0.81673 *
 * O              89      0.09528     -0.13785     -0.80892 *
 * O              90      0.07509      0.14680     -0.81230 *
 * O              91      0.16032      0.02489      0.86295 *
 * O              92     -0.09888      0.12009      0.86560 *
 * O              93     -0.05941     -0.14512      0.86252 *
 * O              94     -0.09725      0.02273      0.40570 *
 * O              95      0.01962     -0.09723      0.40490 *
 * O              96      0.07376      0.07024      0.40134 *
 * O              97     -1.64879      1.75418     -1.01189 *
 * O              98     -0.69204     -2.29194     -1.01787 *
 * O              99      2.34662      0.56137     -1.01794 *
 * O             100      0.08400     -0.01289     -0.40236 *
 * O             101     -0.02151      0.08034     -0.40623 *
 * O             102     -0.05371     -0.06155     -0.40645 *
 * O             103      1.65897     -1.77856      0.94747 *
 * O             104      0.70304      2.31215      0.95882 *
 * O             105     -2.35468     -0.55006      0.95005 *
 * O             106     -0.17437     -0.00729     -0.81332 *
 * O             107      0.09087     -0.13549     -0.80432 *
 * O             108      0.07053      0.14724     -0.80113 *
 * O             109      0.16421      0.01951      0.85863 *
 * O             110     -0.09996      0.12277      0.85933 *
 * O             111     -0.05882     -0.14676      0.86447 *
 * O             112     -0.09908      0.02578      0.40438 *
 * O             113      0.01868     -0.09961      0.40281 *
 * O             114      0.07361      0.06941      0.40349 *
 * O             115     -1.65554      1.74719     -1.01840 *
 * O             116     -0.69209     -2.29377     -1.02316 *
 * O             117      2.38341      0.55741     -0.99908 *
 * O             118      0.07308     -0.01575     -0.40356 *
 * O             119     -0.02605      0.08534     -0.40774 *
 * O             120     -0.05553     -0.06376     -0.40542 *
 * O             121      1.65580     -1.77900      0.94378 *
 * O             122      0.69515      2.29968      0.97008 *
 * O             123     -2.36048     -0.54919      0.95623 *
 * O             124     -0.16912     -0.01169     -0.81198 *
 * O             125      0.09635     -0.13628     -0.80966 *
 * O             126      0.07362      0.15305     -0.81327 *
 * O             127      0.16189      0.02921      0.86421 *
 * O             128     -0.10318      0.12452      0.85608 *
 * O             129     -0.06085     -0.15049      0.86714 *
 * O             130     -0.10247      0.02169      0.40268 *
 * O             131      0.02179     -0.10086      0.40034 *
 * O             132      0.07585      0.07985      0.39963 *
 * O             133     -1.62958      1.72807     -1.02074 *
 * O             134     -0.69544     -2.31766     -1.01644 *
 * O             135      2.37102      0.55739     -1.01369 *
 * O             136      0.08241     -0.01437     -0.40395 *
 * O             137     -0.02432      0.08044     -0.40955 *
 * O             138     -0.05682     -0.06012     -0.40686 *
 * O             139      1.67344     -1.80266      0.93092 *
 * O             140      0.70985      2.32709      0.95391 *
 * O             141     -2.36707     -0.54659      0.94949 *
 * O             142     -0.17477     -0.01588     -0.81265 *
 * O             143      0.10059     -0.13669     -0.81363 *
 * O             144      0.07513      0.15046     -0.81200 *
 * O             145      0.16472      0.02223      0.87455 *
 * O             146     -0.10532      0.12243      0.85842 *
 * O             147     -0.05925     -0.14395      0.86888 *
 * O             148     -0.10101      0.02087      0.39884 *
 * O             149      0.01563     -0.09550      0.40514 *
 * O             150      0.07721      0.07208      0.40059 *
 * O             151     -1.67593      1.78430     -0.99988 *
 * O             152     -0.69168     -2.30872     -1.01541 *
 * O             153      2.34056      0.56093     -1.03170 *
 * O             154      0.08546     -0.00855     -0.40267 *
 * O             155     -0.02637      0.08136     -0.40836 *
 * O             156     -0.05756     -0.06168     -0.40485 *
 * O             157      1.66614     -1.77882      0.94873 *
 * O             158      0.71505      2.34442      0.94098 *
 * O             159     -2.37452     -0.55354      0.95224 *
 * O             160     -0.16729     -0.00784     -0.81443 *
 * O             161      0.09067     -0.14091     -0.80766 *
 * O             162      0.07484      0.14870     -0.81230 *
 * Al              1     -0.00082     -0.00038      0.00106 *
 * Al              2     -0.00519      0.00300     -0.85509 *
 * Al              3     -0.00064     -0.00143     -1.96584 *
 * Al              4     -0.00015      0.00028     -0.21101 *
 * Al              5     -0.00010     -0.00033     -0.08457 *
 * Al              6      0.00006      0.00053      0.08735 *
 * Al              7     -0.00531      0.01216     -7.28174 *
 * Al              8      0.01525     -0.00582      7.28546 *
 * Al              9      0.00008     -0.00028      0.00473 *
 * Al             10     -0.00025      0.00002      0.23185 *
 * Al             11     -0.00207      0.01401      0.85376 *
 * Al             12     -0.00376     -0.00198      1.97747 *
 * Al             13     -0.00055     -0.00025      0.00148 *
 * Al             14      0.00355      0.01253     -0.84610 *
 * Al             15     -0.00094     -0.00011     -1.96663 *
 * Al             16     -0.00019      0.00041     -0.21102 *
 * Al             17     -0.00049     -0.00013     -0.08470 *
 * Al             18     -0.00007      0.00014      0.08770 *
 * Al             19     -0.01797      0.00277     -7.28145 *
 * Al             20      0.00631     -0.00786      7.28656 *
 * Al             21     -0.00038      0.00003      0.00476 *
 * Al             22     -0.00031     -0.00031      0.23178 *
 * Al             23      0.00255     -0.00629      0.85109 *
 * Al             24      0.00085      0.00473      1.96763 *
 * Al             25     -0.00088     -0.00029      0.00116 *
 * Al             26     -0.00497      0.00660     -0.84538 *
 * Al             27     -0.00028     -0.00167     -1.95785 *
 * Al             28     -0.00007      0.00053     -0.21097 *
 * Al             29     -0.00066     -0.00009     -0.08475 *
 * Al             30     -0.00011      0.00017      0.08712 *
 * Al             31      0.00146     -0.00484     -7.28622 *
 * Al             32      0.00028      0.00977      7.28833 *
 * Al             33     -0.00023     -0.00038      0.00460 *
 * Al             34     -0.00013     -0.00037      0.23167 *
 * Al             35      0.01247      0.01006      0.85423 *
 * Al             36     -0.00459     -0.00526      1.97134 *
 * Al             37     -0.00078     -0.00028      0.00122 *
 * Al             38     -0.01077      0.00185     -0.84592 *
 * Al             39     -0.00125     -0.00616     -1.95292 *
 * Al             40     -0.00033     -0.00010     -0.21075 *
 * Al             41     -0.00089      0.00032     -0.08478 *
 * Al             42     -0.00031      0.00004      0.08751 *
 * Al             43     -0.00446     -0.00928     -7.28424 *
 * Al             44      0.00827      0.02036      7.28833 *
 * Al             45     -0.00010      0.00016      0.00508 *
 * Al             46     -0.00045      0.00014      0.23234 *
 * Al             47      0.00200     -0.01177      0.85088 *
 * Al             48      0.00090      0.01076      1.96734 *
 * Al             49     -0.00080     -0.00057      0.00160 *
 * Al             50     -0.00531     -0.00160     -0.85074 *
 * Al             51     -0.00040     -0.00879     -1.96473 *
 * Al             52     -0.00053      0.00035     -0.21054 *
 * Al             53     -0.00061     -0.00026     -0.08451 *
 * Al             54     -0.00043      0.00002      0.08751 *
 * Al             55     -0.01064     -0.01174     -7.28664 *
 * Al             56      0.00255      0.00897      7.28823 *
 * Al             57     -0.00046      0.00004      0.00455 *
 * Al             58      0.00009     -0.00013      0.23142 *
 * Al             59      0.00440     -0.02124      0.85263 *
 * Al             60      0.00384      0.00942      1.96385 *
 * Al             61     -0.00069     -0.00066      0.00157 *
 * Al             62      0.00332     -0.00237     -0.85163 *
 * Al             63     -0.00134     -0.00330     -1.96659 *
 * Al             64     -0.00034      0.00047     -0.21074 *
 * Al             65     -0.00098     -0.00063     -0.08464 *
 * Al             66     -0.00046     -0.00004      0.08722 *
 * Al             67     -0.00941     -0.00712     -7.28501 *
 * Al             68      0.00440     -0.00497      7.28813 *
 * Al             69     -0.00028     -0.00035      0.00490 *
 * Al             70     -0.00042      0.00003      0.23193 *
 * Al             71      0.00703      0.00230      0.85650 *
 * Al             72     -0.00532      0.00279      1.97181 *
 * Al             73     -0.00023      0.00015      0.00112 *
 * Al             74      0.00365      0.00230     -0.85144 *
 * Al             75     -0.00780     -0.00708     -1.96314 *
 * Al             76     -0.00026      0.00023     -0.21092 *
 * Al             77     -0.00103     -0.00027     -0.08508 *
 * Al             78      0.00011      0.00008      0.08732 *
 * Al             79      0.01802     -0.00152     -7.28468 *
 * Al             80      0.01185     -0.01062      7.28626 *
 * Al             81     -0.00020     -0.00022      0.00550 *
 * Al             82     -0.00063      0.00038      0.23178 *
 * Al             83     -0.00232      0.00577      0.84757 *
 * Al             84     -0.00148      0.00593      1.97302 *
 * Al             85     -0.00060     -0.00031      0.00131 *
 * Al             86      0.00256      0.02210     -0.85542 *
 * Al             87     -0.01035      0.00112     -1.96425 *
 * Al             88     -0.00006      0.00019     -0.21047 *
 * Al             89     -0.00117     -0.00037     -0.08474 *
 * Al             90     -0.00027     -0.00025      0.08708 *
 * Al             91     -0.01346     -0.01459     -7.28308 *
 * Al             92      0.00729     -0.01478      7.28931 *
 * Al             93     -0.00015     -0.00027      0.00439 *
 * Al             94     -0.00028     -0.00029      0.23170 *
 * Al             95      0.01168     -0.00260      0.85405 *
 * Al             96     -0.00566      0.00235      1.96396 *
 * Al             97     -0.00062     -0.00023      0.00125 *
 * Al             98     -0.01350      0.00356     -0.84687 *
 * Al             99      0.00619     -0.00316     -1.96003 *
 * Al            100     -0.00007      0.00012     -0.21073 *
 * Al            101     -0.00073     -0.00025     -0.08526 *
 * Al            102      0.00027     -0.00034      0.08734 *
 * Al            103      0.01060     -0.00602     -7.28644 *
 * Al            104      0.00778      0.01737      7.28686 *
 * Al            105     -0.00024     -0.00026      0.00518 *
 * Al            106     -0.00037     -0.00004      0.23200 *
 * Al            107      0.00213     -0.00116      0.84894 *
 * Al            108     -0.00023     -0.00220      1.96341 *
 *                                                          *
 ************************************************************

Writing analysis data to al3x3.castep_bin

Writing model to al3x3.check
 
 A BibTeX formatted list of references used in this run has been written to 
 al3x3.bib
 
Initialisation time =      3.89 s
Calculation time    =    595.49 s
Finalisation time   =     23.34 s
Total time          =    622.71 s
Peak Memory Use     = 1095728 kB
  
Overall parallel efficiency rating: Good (76%)                                  
  
Data was distributed by:-
G-vector (28-way); efficiency rating: Good (78%)                                
k-point (2-way); efficiency rating: Excellent (97%)                             
  
Parallel notes:
1) Calculation only took 599.4 s, so efficiency estimates may be inaccurate.    
