 vasp.5.4.4.18Apr17-6-g9f103f2a35 (build Apr 16 2021 11:04:18) complex           
 executed on   HPECrayEX-GNU-AOCL date 2021.05.22  20:49:45
 running on  512 total cores
 distrk:  each k-point on  512 cores,    1 groups
 distr:  one band on NCORES_PER_BAND=  64 cores,    8 groups


--------------------------------------------------------------------------------------------------------


 INCAR:
 POTCAR:   PAW_GGA Ti_sv 07Sep2000                
 POTCAR:   PAW_GGA O 05Jan2001                    

 ----------------------------------------------------------------------------- 
|                                                                             |
|           W    W    AA    RRRRR   N    N  II  N    N   GGGG   !!!           |
|           W    W   A  A   R    R  NN   N  II  NN   N  G    G  !!!           |
|           W    W  A    A  R    R  N N  N  II  N N  N  G       !!!           |
|           W WW W  AAAAAA  RRRRR   N  N N  II  N  N N  G  GGG   !            |
|           WW  WW  A    A  R   R   N   NN  II  N   NN  G    G                |
|           W    W  A    A  R    R  N    N  II  N    N   GGGG   !!!           |
|                                                                             |
|      For optimal performance we recommend to set                            |
|        NCORE= 4 - approx SQRT( number of cores)                             |
|      NCORE specifies how many cores store one orbital (NPAR=cpu/NCORE).     |
|      This setting can  greatly improve the performance of VASP for DFT.     |
|      The default,   NCORE=1            might be grossly inefficient         |
|      on modern multi-core architectures or massively parallel machines.     |
|      Do your own testing !!!!                                               |
|      Unfortunately you need to use the default for GW and RPA calculations. |
|      (for HF NCORE is supported but not extensively tested yet)             |
|                                                                             |
 ----------------------------------------------------------------------------- 

 POTCAR:   PAW_GGA Ti_sv 07Sep2000                
  local pseudopotential read in
  partial core-charges read in
  atomic valenz-charges read in
  non local Contribution for L=           0  read in
    real space projection operators read in
  non local Contribution for L=           0  read in
    real space projection operators read in
  non local Contribution for L=           1  read in
    real space projection operators read in
  non local Contribution for L=           1  read in
    real space projection operators read in
  non local Contribution for L=           2  read in
    real space projection operators read in
  non local Contribution for L=           2  read in
    real space projection operators read in
    PAW grid and wavefunctions read in

   number of l-projection  operators is LMAX  =           6
   number of lm-projection operators is LMMAX =          18

 POTCAR:   PAW_GGA O 05Jan2001                    
  local pseudopotential read in
  atomic valenz-charges read in
  non local Contribution for L=           0  read in
    real space projection operators read in
  non local Contribution for L=           0  read in
    real space projection operators read in
  non local Contribution for L=           1  read in
    real space projection operators read in
  non local Contribution for L=           1  read in
    real space projection operators read in
    PAW grid and wavefunctions read in

   number of l-projection  operators is LMAX  =           4
   number of lm-projection operators is LMMAX =           8

 PAW_GGA Ti_sv 07Sep2000                :
 energy of atom  1       EATOM=-1589.1200
 kinetic energy error for atom=    0.0010 (will be added to EATOM!!)
 PAW_GGA O 05Jan2001                    :
 energy of atom  2       EATOM= -433.0277
 kinetic energy error for atom=    0.0059 (will be added to EATOM!!)


 POSCAR: TeraGrid TiO2 Benchmark, Doubled in X di
  positions in cartesian coordinates
  velocities in cartesian coordinates
  No initial velocities read in
 exchange correlation table for  LEXCH =        7
   RHO(1)=    0.500       N(1)  =     2000
   RHO(2)=  100.500       N(2)  =     4000



--------------------------------------------------------------------------------------------------------


 ion  position               nearest neighbor table
     1  0.000  0.000  0.268-   377 1.84   365 1.96   849 1.96   528 1.96  1012 1.96
     2  0.500  0.000  0.268-   378 1.84   527 1.96  1011 1.96   850 1.96   366 1.96
     3  0.083  0.000  0.268-   379 1.84   367 1.96   851 1.96   849 1.96   365 1.96
     4  0.583  0.000  0.268-   380 1.84   368 1.96   852 1.96   850 1.96   366 1.96
     5  0.042  0.167  0.256-   361 1.85   363 1.85   365 2.06   369 2.06   373 2.10   375 2.10
     6  0.542  0.167  0.256-   362 1.85   364 1.85   366 2.06   370 2.06   374 2.10   376 2.10
     7  0.125  0.167  0.256-   363 1.85   441 1.85   367 2.06   371 2.06   375 2.10   453 2.10
     8  0.625  0.167  0.256-   364 1.85   442 1.85   368 2.06   372 2.06   376 2.10   454 2.10
     9  0.000  0.167  0.377-   373 1.89   385 1.99   381 1.99   548 1.99   544 1.99   393 2.10
    10  0.500  0.167  0.377-   374 1.89   547 1.99   543 1.99   386 1.99   382 1.99   394 2.10
    11  0.083  0.167  0.377-   375 1.89   387 1.99   383 1.99   385 1.99   381 1.99   395 2.10
    12  0.583  0.167  0.377-   376 1.89   388 1.99   384 1.99   386 1.99   382 1.99   396 2.10
    13  0.042  0.000  0.384-   389 1.92   391 1.92   385 1.98   861 1.98   377 2.02   379 2.02
    14  0.542  0.000  0.384-   390 1.92   392 1.92   386 1.98   862 1.98   378 2.02   380 2.02
    15  0.125  0.000  0.384-   391 1.92   469 1.92   387 1.98   863 1.98   379 2.02   457 2.02
    16  0.625  0.000  0.384-   392 1.92   470 1.92   388 1.98   864 1.98   380 2.02   458 2.02
    17  0.000  0.000  0.500-   397 1.97   881 1.97   560 1.97  1044 1.97   409 2.01   389 2.01
    18  0.500  0.000  0.500-   559 1.97  1043 1.97   882 1.97   398 1.97   410 2.01   390 2.01
    19  0.083  0.000  0.500-   399 1.97   883 1.97   881 1.97   397 1.97   411 2.01   391 2.01
    20  0.583  0.000  0.500-   400 1.97   884 1.97   882 1.97   398 1.97   412 2.01   392 2.01
    21  0.042  0.167  0.500-   405 1.97   407 1.97   393 1.97   395 1.97   397 2.00   401 2.00
    22  0.542  0.167  0.500-   406 1.97   408 1.97   394 1.97   396 1.97   398 2.00   402 2.00
    23  0.125  0.167  0.500-   407 1.97   485 1.97   473 1.97   395 1.97   399 2.00   403 2.00
    24  0.625  0.167  0.500-   408 1.97   396 1.97   486 1.97   474 1.97   400 2.00   404 2.00
    25  0.000  0.167  0.623-   425 1.89   417 1.99   413 1.99   580 1.99   576 1.99   405 2.10
    26  0.500  0.167  0.623-   426 1.89   579 1.99   575 1.99   418 1.99   414 1.99   406 2.10
    27  0.083  0.167  0.623-   427 1.89   419 1.99   415 1.99   417 1.99   413 1.99   407 2.10
    28  0.583  0.167  0.623-   428 1.89   420 1.99   416 1.99   418 1.99   414 1.99   408 2.10
    29  0.042  0.000  0.616-   409 1.92   411 1.92   417 1.98   893 1.98   421 2.02   423 2.02
    30  0.542  0.000  0.616-   410 1.92   412 1.92   418 1.98   894 1.98   422 2.02   424 2.02
    31  0.125  0.000  0.616-   411 1.92   489 1.92   419 1.98   895 1.98   501 2.02   423 2.02
    32  0.625  0.000  0.616-   412 1.92   490 1.92   420 1.98   896 1.98   424 2.02   502 2.02
    33  0.000  0.000  0.732-   421 1.84   429 1.96   913 1.96   592 1.96  1076 1.96
    34  0.500  0.000  0.732-   422 1.84   591 1.96  1075 1.96   914 1.96   430 1.96
    35  0.083  0.000  0.732-   423 1.84   431 1.96   915 1.96   913 1.96   429 1.96
    36  0.583  0.000  0.732-   424 1.84   432 1.96   916 1.96   914 1.96   430 1.96
    37  0.042  0.167  0.744-   437 1.85   439 1.85   429 2.06   433 2.06   425 2.10   427 2.10
    38  0.542  0.167  0.744-   438 1.85   440 1.85   430 2.06   434 2.06   426 2.10   428 2.10
    39  0.125  0.167  0.744-   439 1.85   517 1.85   431 2.06   435 2.06   505 2.10   427 2.10
    40  0.625  0.167  0.744-   440 1.85   518 1.85   432 2.06   436 2.06   428 2.10   506 2.10
    41  0.167  0.000  0.268-   457 1.84   367 1.96   851 1.96   445 1.96   929 1.96
    42  0.667  0.000  0.268-   458 1.84   446 1.96   930 1.96   852 1.96   368 1.96
    43  0.250  0.000  0.268-   459 1.84   447 1.96   445 1.96   929 1.96   931 1.96
    44  0.750  0.000  0.268-   460 1.84   448 1.96   932 1.96   930 1.96   446 1.96
    45  0.208  0.167  0.256-   443 1.85   441 1.85   445 2.06   449 2.06   455 2.10   453 2.10
    46  0.708  0.167  0.256-   442 1.85   444 1.85   446 2.06   450 2.06   454 2.10   456 2.10
    47  0.292  0.167  0.256-   443 1.85   521 1.85   447 2.06   451 2.06   455 2.10   533 2.10
    48  0.792  0.167  0.256-   444 1.85   522 1.85   448 2.06   452 2.06   456 2.10   534 2.10
    49  0.167  0.167  0.377-   453 1.89   387 1.99   383 1.99   465 1.99   461 1.99   473 2.10
    50  0.667  0.167  0.377-   454 1.89   466 1.99   462 1.99   388 1.99   384 1.99   474 2.10
    51  0.250  0.167  0.377-   455 1.89   465 1.99   467 1.99   461 1.99   463 1.99   475 2.10
    52  0.750  0.167  0.377-   456 1.89   468 1.99   464 1.99   466 1.99   462 1.99   476 2.10
    53  0.208  0.000  0.384-   471 1.92   469 1.92   465 1.98   941 1.98   459 2.02   457 2.02
    54  0.708  0.000  0.384-   470 1.92   472 1.92   466 1.98   942 1.98   458 2.02   460 2.02
    55  0.292  0.000  0.384-   471 1.92   549 1.92   467 1.98   943 1.98   459 2.02   537 2.02
    56  0.792  0.000  0.384-   472 1.92   550 1.92   468 1.98   944 1.98   460 2.02   538 2.02
    57  0.167  0.000  0.500-   399 1.97   883 1.97   477 1.97   961 1.97   489 2.01   469 2.01
    58  0.667  0.000  0.500-   478 1.97   962 1.97   884 1.97   400 1.97   490 2.01   470 2.01
    59  0.250  0.000  0.500-   477 1.97   479 1.97   961 1.97   963 1.97   491 2.01   471 2.01
    60  0.750  0.000  0.500-   480 1.97   964 1.97   962 1.97   478 1.97   492 2.01   472 2.01
    61  0.208  0.167  0.500-   487 1.97   485 1.97   475 1.97   473 1.97   477 2.00   481 2.00
    62  0.708  0.167  0.500-   486 1.97   474 1.97   488 1.97   476 1.97   478 2.00   482 2.00
    63  0.292  0.167  0.500-   487 1.97   565 1.97   475 1.97   553 1.97   479 2.00   483 2.00
    64  0.792  0.167  0.500-   488 1.97   476 1.97   566 1.97   554 1.97   480 2.00   484 2.00
    65  0.167  0.167  0.623-   505 1.89   419 1.99   415 1.99   497 1.99   493 1.99   485 2.10
    66  0.667  0.167  0.623-   506 1.89   498 1.99   494 1.99   420 1.99   416 1.99   486 2.10
    67  0.250  0.167  0.623-   507 1.89   499 1.99   497 1.99   495 1.99   493 1.99   487 2.10
    68  0.750  0.167  0.623-   508 1.89   500 1.99   496 1.99   498 1.99   494 1.99   488 2.10
    69  0.208  0.000  0.616-   491 1.92   489 1.92   497 1.98   973 1.98   503 2.02   501 2.02
    70  0.708  0.000  0.616-   490 1.92   492 1.92   498 1.98   974 1.98   502 2.02   504 2.02
    71  0.292  0.000  0.616-   491 1.92   569 1.92   499 1.98   975 1.98   503 2.02   581 2.02
    72  0.792  0.000  0.616-   492 1.92   570 1.92   500 1.98   976 1.98   504 2.02   582 2.02
    73  0.167  0.000  0.732-   501 1.84   431 1.96   915 1.96   509 1.96   993 1.96
    74  0.667  0.000  0.732-   502 1.84   510 1.96   994 1.96   916 1.96   432 1.96
    75  0.250  0.000  0.732-   503 1.84   509 1.96   511 1.96   993 1.96   995 1.96
    76  0.750  0.000  0.732-   504 1.84   512 1.96   996 1.96   994 1.96   510 1.96
    77  0.208  0.167  0.744-   519 1.85   517 1.85   509 2.06   513 2.06   507 2.10   505 2.10
    78  0.708  0.167  0.744-   518 1.85   520 1.85   510 2.06   514 2.06   506 2.10   508 2.10
    79  0.292  0.167  0.744-   519 1.85   597 1.85   511 2.06   515 2.06   507 2.10   585 2.10
    80  0.792  0.167  0.744-   520 1.85   598 1.85   512 2.06   516 2.06   508 2.10   586 2.10
    81  0.333  0.000  0.268-   537 1.84   525 1.96  1009 1.96   931 1.96   447 1.96
    82  0.833  0.000  0.268-   538 1.84   526 1.96  1010 1.96   932 1.96   448 1.96
    83  0.417  0.000  0.268-   539 1.84   525 1.96  1009 1.96   527 1.96  1011 1.96
    84  0.917  0.000  0.268-   540 1.84   528 1.96  1012 1.96  1010 1.96   526 1.96
    85  0.375  0.167  0.256-   521 1.85   523 1.85   525 2.06   529 2.06   533 2.10   535 2.10
    86  0.875  0.167  0.256-   522 1.85   524 1.85   526 2.06   530 2.06   534 2.10   536 2.10
    87  0.458  0.167  0.256-   362 1.85   523 1.85   527 2.06   531 2.06   374 2.10   535 2.10
    88  0.958  0.167  0.256-   524 1.85   361 1.85   528 2.06   532 2.06   536 2.10   373 2.10
    89  0.333  0.167  0.377-   533 1.89   545 1.99   541 1.99   467 1.99   463 1.99   553 2.10
    90  0.833  0.167  0.377-   534 1.89   546 1.99   542 1.99   468 1.99   464 1.99   554 2.10
    91  0.417  0.167  0.377-   535 1.89   545 1.99   541 1.99   547 1.99   543 1.99   555 2.10
    92  0.917  0.167  0.377-   536 1.89   548 1.99   544 1.99   546 1.99   542 1.99   556 2.10
    93  0.375  0.000  0.384-   549 1.92   551 1.92   545 1.98  1021 1.98   537 2.02   539 2.02
    94  0.875  0.000  0.384-   550 1.92   552 1.92   546 1.98  1022 1.98   538 2.02   540 2.02
    95  0.458  0.000  0.384-   390 1.92   551 1.92   547 1.98  1023 1.98   378 2.02   539 2.02
    96  0.958  0.000  0.384-   552 1.92   389 1.92   548 1.98  1024 1.98   540 2.02   377 2.02
    97  0.333  0.000  0.500-   557 1.97  1041 1.97   963 1.97   479 1.97   569 2.01   549 2.01
    98  0.833  0.000  0.500-   558 1.97  1042 1.97   964 1.97   480 1.97   570 2.01   550 2.01
    99  0.417  0.000  0.500-   557 1.97  1041 1.97   559 1.97  1043 1.97   571 2.01   551 2.01
   100  0.917  0.000  0.500-   560 1.97  1044 1.97  1042 1.97   558 1.97   572 2.01   552 2.01
   101  0.375  0.167  0.500-   565 1.97   567 1.97   553 1.97   555 1.97   557 2.00   561 2.00
   102  0.875  0.167  0.500-   566 1.97   554 1.97   568 1.97   556 1.97   558 2.00   562 2.00
   103  0.458  0.167  0.500-   406 1.97   394 1.97   567 1.97   555 1.97   559 2.00   563 2.00
   104  0.958  0.167  0.500-   568 1.97   556 1.97   405 1.97   393 1.97   560 2.00   564 2.00
   105  0.333  0.167  0.623-   585 1.89   577 1.99   573 1.99   499 1.99   495 1.99   565 2.10
   106  0.833  0.167  0.623-   586 1.89   578 1.99   574 1.99   500 1.99   496 1.99   566 2.10
   107  0.417  0.167  0.623-   587 1.89   577 1.99   573 1.99   579 1.99   575 1.99   567 2.10
   108  0.917  0.167  0.623-   588 1.89   580 1.99   576 1.99   578 1.99   574 1.99   568 2.10
   109  0.375  0.000  0.616-   569 1.92   571 1.92   577 1.98  1053 1.98   583 2.02   581 2.02
   110  0.875  0.000  0.616-   570 1.92   572 1.92   578 1.98  1054 1.98   582 2.02   584 2.02
   111  0.458  0.000  0.616-   410 1.92   571 1.92   579 1.98  1055 1.98   422 2.02   583 2.02
   112  0.958  0.000  0.616-   572 1.92   409 1.92   580 1.98  1056 1.98   584 2.02   421 2.02
   113  0.333  0.000  0.732-   581 1.84   589 1.96  1073 1.96   995 1.96   511 1.96
   114  0.833  0.000  0.732-   582 1.84   590 1.96  1074 1.96   996 1.96   512 1.96
   115  0.417  0.000  0.732-   583 1.84   589 1.96  1073 1.96   591 1.96  1075 1.96
   116  0.917  0.000  0.732-   584 1.84   592 1.96  1076 1.96  1074 1.96   590 1.96
   117  0.375  0.167  0.744-   597 1.85   599 1.85   589 2.06   593 2.06   585 2.10   587 2.10
   118  0.875  0.167  0.744-   598 1.85   600 1.85   590 2.06   594 2.06   586 2.10   588 2.10
   119  0.458  0.167  0.744-   438 1.85   599 1.85   591 2.06   595 2.06   426 2.10   587 2.10
   120  0.958  0.167  0.744-   600 1.85   437 1.85   592 2.06   596 2.06   588 2.10   425 2.10
   121  0.000  0.333  0.268-   617 1.84   605 1.96   369 1.96   532 1.96   768 1.96
   122  0.500  0.333  0.268-   618 1.84   531 1.96   767 1.96   370 1.96   606 1.96
   123  0.083  0.333  0.268-   619 1.84   607 1.96   371 1.96   369 1.96   605 1.96
   124  0.583  0.333  0.268-   620 1.84   608 1.96   372 1.96   370 1.96   606 1.96
   125  0.042  0.500  0.256-   601 1.85   603 1.85   605 2.06   609 2.06   613 2.10   615 2.10
   126  0.542  0.500  0.256-   602 1.85   604 1.85   606 2.06   610 2.06   614 2.10   616 2.10
   127  0.125  0.500  0.256-   603 1.85   681 1.85   611 2.06   607 2.06   615 2.10   693 2.10
   128  0.625  0.500  0.256-   604 1.85   682 1.85   612 2.06   608 2.06   616 2.10   694 2.10
   129  0.000  0.500  0.377-   613 1.89   621 1.99   625 1.99   784 1.99   788 1.99   633 2.10
   130  0.500  0.500  0.377-   614 1.89   783 1.99   787 1.99   622 1.99   626 1.99   634 2.10
   131  0.083  0.500  0.377-   615 1.89   623 1.99   627 1.99   625 1.99   621 1.99   635 2.10
   132  0.583  0.500  0.377-   616 1.89   624 1.99   628 1.99   626 1.99   622 1.99   636 2.10
   133  0.042  0.333  0.384-   629 1.92   631 1.92   625 1.98   381 1.98   617 2.02   619 2.02
   134  0.542  0.333  0.384-   630 1.92   632 1.92   626 1.98   382 1.98   618 2.02   620 2.02
   135  0.125  0.333  0.384-   631 1.92   709 1.92   627 1.98   383 1.98   697 2.02   619 2.02
   136  0.625  0.333  0.384-   632 1.92   710 1.92   628 1.98   384 1.98   620 2.02   698 2.02
   137  0.000  0.333  0.500-   401 1.97   637 1.97   564 1.97   800 1.97   649 2.01   629 2.01
   138  0.500  0.333  0.500-   563 1.97   799 1.97   638 1.97   402 1.97   650 2.01   630 2.01
   139  0.083  0.333  0.500-   403 1.97   639 1.97   637 1.97   401 1.97   651 2.01   631 2.01
   140  0.583  0.333  0.500-   404 1.97   640 1.97   638 1.97   402 1.97   652 2.01   632 2.01
   141  0.042  0.500  0.500-   645 1.97   647 1.97   633 1.97   635 1.97   637 2.00   641 2.00
   142  0.542  0.500  0.500-   646 1.97   648 1.97   634 1.97   636 1.97   638 2.00   642 2.00
   143  0.125  0.500  0.500-   647 1.97   725 1.97   713 1.97   635 1.97   643 2.00   639 2.00
   144  0.625  0.500  0.500-   648 1.97   636 1.97   726 1.97   714 1.97   644 2.00   640 2.00
   145  0.000  0.500  0.623-   665 1.89   657 1.99   653 1.99   816 1.99   820 1.99   645 2.10
   146  0.500  0.500  0.623-   666 1.89   815 1.99   819 1.99   658 1.99   654 1.99   646 2.10
   147  0.083  0.500  0.623-   667 1.89   659 1.99   655 1.99   653 1.99   657 1.99   647 2.10
   148  0.583  0.500  0.623-   668 1.89   660 1.99   656 1.99   654 1.99   658 1.99   648 2.10
   149  0.042  0.333  0.616-   649 1.92   651 1.92   657 1.98   413 1.98   661 2.02   663 2.02
   150  0.542  0.333  0.616-   650 1.92   652 1.92   658 1.98   414 1.98   662 2.02   664 2.02
   151  0.125  0.333  0.616-   651 1.92   729 1.92   659 1.98   415 1.98   663 2.02   741 2.02
   152  0.625  0.333  0.616-   652 1.92   730 1.92   660 1.98   416 1.98   664 2.02   742 2.02
   153  0.000  0.333  0.732-   661 1.84   433 1.96   669 1.96   596 1.96   832 1.96
   154  0.500  0.333  0.732-   662 1.84   595 1.96   831 1.96   670 1.96   434 1.96
   155  0.083  0.333  0.732-   663 1.84   435 1.96   671 1.96   669 1.96   433 1.96
   156  0.583  0.333  0.732-   664 1.84   436 1.96   672 1.96   670 1.96   434 1.96
   157  0.042  0.500  0.744-   677 1.85   679 1.85   669 2.06   673 2.06   665 2.10   667 2.10
   158  0.542  0.500  0.744-   678 1.85   680 1.85   670 2.06   674 2.06   666 2.10   668 2.10
   159  0.125  0.500  0.744-   679 1.85   757 1.85   671 2.06   675 2.06   745 2.10   667 2.10
   160  0.625  0.500  0.744-   680 1.85   758 1.85   672 2.06   676 2.06   668 2.10   746 2.10
   161  0.167  0.333  0.268-   697 1.84   607 1.96   371 1.96   685 1.96   449 1.96
   162  0.667  0.333  0.268-   698 1.84   686 1.96   450 1.96   372 1.96   608 1.96
   163  0.250  0.333  0.268-   699 1.84   451 1.96   685 1.96   687 1.96   449 1.96
   164  0.750  0.333  0.268-   700 1.84   688 1.96   452 1.96   450 1.96   686 1.96
   165  0.208  0.500  0.256-   683 1.85   681 1.85   685 2.06   689 2.06   695 2.10   693 2.10
   166  0.708  0.500  0.256-   682 1.85   684 1.85   686 2.06   690 2.06   694 2.10   696 2.10
   167  0.292  0.500  0.256-   683 1.85   761 1.85   691 2.06   687 2.06   695 2.10   773 2.10
   168  0.792  0.500  0.256-   684 1.85   762 1.85   692 2.06   688 2.06   696 2.10   774 2.10
   169  0.167  0.500  0.377-   693 1.89   627 1.99   623 1.99   701 1.99   705 1.99   713 2.10
   170  0.667  0.500  0.377-   694 1.89   702 1.99   706 1.99   628 1.99   624 1.99   714 2.10
   171  0.250  0.500  0.377-   695 1.89   701 1.99   703 1.99   705 1.99   707 1.99   715 2.10
   172  0.750  0.500  0.377-   696 1.89   704 1.99   708 1.99   706 1.99   702 1.99   716 2.10
   173  0.208  0.333  0.384-   711 1.92   709 1.92   705 1.98   461 1.98   699 2.02   697 2.02
   174  0.708  0.333  0.384-   710 1.92   712 1.92   706 1.98   462 1.98   698 2.02   700 2.02
   175  0.292  0.333  0.384-   711 1.92   789 1.92   707 1.98   463 1.98   699 2.02   777 2.02
   176  0.792  0.333  0.384-   712 1.92   790 1.92   708 1.98   464 1.98   700 2.02   778 2.02
   177  0.167  0.333  0.500-   403 1.97   639 1.97   481 1.97   717 1.97   729 2.01   709 2.01
   178  0.667  0.333  0.500-   482 1.97   718 1.97   640 1.97   404 1.97   730 2.01   710 2.01
   179  0.250  0.333  0.500-   481 1.97   483 1.97   717 1.97   719 1.97   731 2.01   711 2.01
   180  0.750  0.333  0.500-   484 1.97   720 1.97   718 1.97   482 1.97   732 2.01   712 2.01
   181  0.208  0.500  0.500-   727 1.97   725 1.97   715 1.97   713 1.97   717 2.00   721 2.00
   182  0.708  0.500  0.500-   726 1.97   714 1.97   728 1.97   716 1.97   718 2.00   722 2.00
   183  0.292  0.500  0.500-   727 1.97   805 1.97   715 1.97   793 1.97   723 2.00   719 2.00
   184  0.792  0.500  0.500-   728 1.97   716 1.97   806 1.97   794 1.97   724 2.00   720 2.00
   185  0.167  0.500  0.623-   745 1.89   659 1.99   655 1.99   737 1.99   733 1.99   725 2.10
   186  0.667  0.500  0.623-   746 1.89   738 1.99   734 1.99   660 1.99   656 1.99   726 2.10
   187  0.250  0.500  0.623-   747 1.89   735 1.99   737 1.99   739 1.99   733 1.99   727 2.10
   188  0.750  0.500  0.623-   748 1.89   740 1.99   736 1.99   734 1.99   738 1.99   728 2.10
   189  0.208  0.333  0.616-   731 1.92   729 1.92   737 1.98   493 1.98   743 2.02   741 2.02
   190  0.708  0.333  0.616-   730 1.92   732 1.92   738 1.98   494 1.98   742 2.02   744 2.02
   191  0.292  0.333  0.616-   731 1.92   809 1.92   739 1.98   495 1.98   743 2.02   821 2.02
   192  0.792  0.333  0.616-   732 1.92   810 1.92   740 1.98   496 1.98   744 2.02   822 2.02
   193  0.167  0.333  0.732-   741 1.84   671 1.96   435 1.96   513 1.96   749 1.96
   194  0.667  0.333  0.732-   742 1.84   514 1.96   750 1.96   436 1.96   672 1.96
   195  0.250  0.333  0.732-   743 1.84   515 1.96   513 1.96   749 1.96   751 1.96
   196  0.750  0.333  0.732-   744 1.84   516 1.96   752 1.96   750 1.96   514 1.96
   197  0.208  0.500  0.744-   759 1.85   757 1.85   749 2.06   753 2.06   747 2.10   745 2.10
   198  0.708  0.500  0.744-   758 1.85   760 1.85   750 2.06   754 2.06   746 2.10   748 2.10
   199  0.292  0.500  0.744-   759 1.85   837 1.85   751 2.06   755 2.06   747 2.10   825 2.10
   200  0.792  0.500  0.744-   760 1.85   838 1.85   752 2.06   756 2.06   748 2.10   826 2.10
   201  0.333  0.333  0.268-   777 1.84   765 1.96   529 1.96   451 1.96   687 1.96
   202  0.833  0.333  0.268-   778 1.84   766 1.96   530 1.96   452 1.96   688 1.96
   203  0.417  0.333  0.268-   779 1.84   765 1.96   529 1.96   767 1.96   531 1.96
   204  0.917  0.333  0.268-   780 1.84   768 1.96   532 1.96   530 1.96   766 1.96
   205  0.375  0.500  0.256-   761 1.85   763 1.85   765 2.06   769 2.06   773 2.10   775 2.10
   206  0.875  0.500  0.256-   762 1.85   764 1.85   766 2.06   770 2.06   774 2.10   776 2.10
   207  0.458  0.500  0.256-   602 1.85   763 1.85   767 2.06   771 2.06   614 2.10   775 2.10
   208  0.958  0.500  0.256-   764 1.85   601 1.85   768 2.06   772 2.06   776 2.10   613 2.10
   209  0.333  0.500  0.377-   773 1.89   781 1.99   785 1.99   707 1.99   703 1.99   793 2.10
   210  0.833  0.500  0.377-   774 1.89   782 1.99   786 1.99   708 1.99   704 1.99   794 2.10
   211  0.417  0.500  0.377-   775 1.89   781 1.99   785 1.99   783 1.99   787 1.99   795 2.10
   212  0.917  0.500  0.377-   776 1.89   784 1.99   788 1.99   786 1.99   782 1.99   796 2.10
   213  0.375  0.333  0.384-   789 1.92   791 1.92   785 1.98   541 1.98   779 2.02   777 2.02
   214  0.875  0.333  0.384-   790 1.92   792 1.92   786 1.98   542 1.98   778 2.02   780 2.02
   215  0.458  0.333  0.384-   630 1.92   791 1.92   787 1.98   543 1.98   618 2.02   779 2.02
   216  0.958  0.333  0.384-   792 1.92   629 1.92   788 1.98   544 1.98   780 2.02   617 2.02
   217  0.333  0.333  0.500-   561 1.97   797 1.97   719 1.97   483 1.97   809 2.01   789 2.01
   218  0.833  0.333  0.500-   562 1.97   798 1.97   720 1.97   484 1.97   810 2.01   790 2.01
   219  0.417  0.333  0.500-   561 1.97   797 1.97   563 1.97   799 1.97   811 2.01   791 2.01
   220  0.917  0.333  0.500-   564 1.97   800 1.97   798 1.97   562 1.97   812 2.01   792 2.01
   221  0.375  0.500  0.500-   805 1.97   807 1.97   793 1.97   795 1.97   797 2.00   801 2.00
   222  0.875  0.500  0.500-   806 1.97   794 1.97   808 1.97   796 1.97   798 2.00   802 2.00
   223  0.458  0.500  0.500-   646 1.97   634 1.97   807 1.97   795 1.97   803 2.00   799 2.00
   224  0.958  0.500  0.500-   808 1.97   796 1.97   645 1.97   633 1.97   804 2.00   800 2.00
   225  0.333  0.500  0.623-   825 1.89   817 1.99   813 1.99   739 1.99   735 1.99   805 2.10
   226  0.833  0.500  0.623-   826 1.89   818 1.99   814 1.99   740 1.99   736 1.99   806 2.10
   227  0.417  0.500  0.623-   827 1.89   817 1.99   813 1.99   819 1.99   815 1.99   807 2.10
   228  0.917  0.500  0.623-   828 1.89   820 1.99   816 1.99   814 1.99   818 1.99   808 2.10
   229  0.375  0.333  0.616-   809 1.92   811 1.92   817 1.98   573 1.98   821 2.02   823 2.02
   230  0.875  0.333  0.616-   810 1.92   812 1.92   818 1.98   574 1.98   822 2.02   824 2.02
   231  0.458  0.333  0.616-   650 1.92   811 1.92   819 1.98   575 1.98   662 2.02   823 2.02
   232  0.958  0.333  0.616-   812 1.92   649 1.92   820 1.98   576 1.98   824 2.02   661 2.02
   233  0.333  0.333  0.732-   821 1.84   593 1.96   829 1.96   515 1.96   751 1.96
   234  0.833  0.333  0.732-   822 1.84   594 1.96   830 1.96   516 1.96   752 1.96
   235  0.417  0.333  0.732-   823 1.84   593 1.96   829 1.96   595 1.96   831 1.96
   236  0.917  0.333  0.732-   824 1.84   596 1.96   832 1.96   830 1.96   594 1.96
   237  0.375  0.500  0.744-   837 1.85   839 1.85   829 2.06   833 2.06   825 2.10   827 2.10
   238  0.875  0.500  0.744-   838 1.85   840 1.85   830 2.06   834 2.06   826 2.10   828 2.10
   239  0.458  0.500  0.744-   678 1.85   839 1.85   835 2.06   831 2.06   666 2.10   827 2.10
   240  0.958  0.500  0.744-   840 1.85   677 1.85   836 2.06   832 2.06   828 2.10   665 2.10
   241  0.000  0.667  0.268-   857 1.84   845 1.96   609 1.96   772 1.96  1008 1.96
   242  0.500  0.667  0.268-   858 1.84   771 1.96  1007 1.96   610 1.96   846 1.96
   243  0.083  0.667  0.268-   859 1.84   847 1.96   611 1.96   609 1.96   845 1.96
   244  0.583  0.667  0.268-   860 1.84   848 1.96   612 1.96   610 1.96   846 1.96
   245  0.042  0.833  0.256-   841 1.85   843 1.85   849 2.06   845 2.06   853 2.10   855 2.10
   246  0.542  0.833  0.256-   842 1.85   844 1.85   850 2.06   846 2.06   854 2.10   856 2.10
   247  0.125  0.833  0.256-   843 1.85   921 1.85   851 2.06   847 2.06   855 2.10   933 2.10
   248  0.625  0.833  0.256-   844 1.85   922 1.85   852 2.06   848 2.06   856 2.10   934 2.10
   249  0.000  0.833  0.377-   853 1.89   861 1.99   865 1.99  1024 1.99  1028 1.99   873 2.10
   250  0.500  0.833  0.377-   854 1.89  1023 1.99  1027 1.99   862 1.99   866 1.99   874 2.10
   251  0.083  0.833  0.377-   855 1.89   863 1.99   867 1.99   861 1.99   865 1.99   875 2.10
   252  0.583  0.833  0.377-   856 1.89   864 1.99   868 1.99   862 1.99   866 1.99   876 2.10
   253  0.042  0.667  0.384-   869 1.92   871 1.92   621 1.98   865 1.98   857 2.02   859 2.02
   254  0.542  0.667  0.384-   870 1.92   872 1.92   622 1.98   866 1.98   858 2.02   860 2.02
   255  0.125  0.667  0.384-   871 1.92   949 1.92   623 1.98   867 1.98   937 2.02   859 2.02
   256  0.625  0.667  0.384-   872 1.92   950 1.92   624 1.98   868 1.98   860 2.02   938 2.02
   257  0.000  0.667  0.500-   641 1.97   877 1.97   804 1.97  1040 1.97   889 2.01   869 2.01
   258  0.500  0.667  0.500-   803 1.97  1039 1.97   878 1.97   642 1.97   890 2.01   870 2.01
   259  0.083  0.667  0.500-   643 1.97   879 1.97   877 1.97   641 1.97   891 2.01   871 2.01
   260  0.583  0.667  0.500-   644 1.97   880 1.97   878 1.97   642 1.97   892 2.01   872 2.01
   261  0.042  0.833  0.500-   885 1.97   887 1.97   873 1.97   875 1.97   881 2.00   877 2.00
   262  0.542  0.833  0.500-   886 1.97   888 1.97   874 1.97   876 1.97   882 2.00   878 2.00
   263  0.125  0.833  0.500-   887 1.97   965 1.97   953 1.97   875 1.97   883 2.00   879 2.00
   264  0.625  0.833  0.500-   888 1.97   876 1.97   966 1.97   954 1.97   884 2.00   880 2.00
   265  0.000  0.833  0.623-   905 1.89   893 1.99   897 1.99  1056 1.99  1060 1.99   885 2.10
   266  0.500  0.833  0.623-   906 1.89  1055 1.99  1059 1.99   894 1.99   898 1.99   886 2.10
   267  0.083  0.833  0.623-   907 1.89   895 1.99   899 1.99   893 1.99   897 1.99   887 2.10
   268  0.583  0.833  0.623-   908 1.89   896 1.99   900 1.99   894 1.99   898 1.99   888 2.10
   269  0.042  0.667  0.616-   889 1.92   891 1.92   653 1.98   897 1.98   901 2.02   903 2.02
   270  0.542  0.667  0.616-   890 1.92   892 1.92   654 1.98   898 1.98   902 2.02   904 2.02
   271  0.125  0.667  0.616-   891 1.92   969 1.92   655 1.98   899 1.98   903 2.02   981 2.02
   272  0.625  0.667  0.616-   892 1.92   970 1.92   656 1.98   900 1.98   904 2.02   982 2.02
   273  0.000  0.667  0.732-   901 1.84   673 1.96   909 1.96   836 1.96  1072 1.96
   274  0.500  0.667  0.732-   902 1.84   835 1.96  1071 1.96   910 1.96   674 1.96
   275  0.083  0.667  0.732-   903 1.84   675 1.96   911 1.96   909 1.96   673 1.96
   276  0.583  0.667  0.732-   904 1.84   676 1.96   912 1.96   910 1.96   674 1.96
   277  0.042  0.833  0.744-   917 1.85   919 1.85   913 2.06   909 2.06   905 2.10   907 2.10
   278  0.542  0.833  0.744-   918 1.85   920 1.85   914 2.06   910 2.06   906 2.10   908 2.10
   279  0.125  0.833  0.744-   919 1.85   997 1.85   915 2.06   911 2.06   985 2.10   907 2.10
   280  0.625  0.833  0.744-   920 1.85   998 1.85   916 2.06   912 2.06   908 2.10   986 2.10
   281  0.167  0.667  0.268-   937 1.84   847 1.96   611 1.96   925 1.96   689 1.96
   282  0.667  0.667  0.268-   938 1.84   926 1.96   690 1.96   612 1.96   848 1.96
   283  0.250  0.667  0.268-   939 1.84   691 1.96   925 1.96   927 1.96   689 1.96
   284  0.750  0.667  0.268-   940 1.84   928 1.96   692 1.96   690 1.96   926 1.96
   285  0.208  0.833  0.256-   923 1.85   921 1.85   929 2.06   925 2.06   935 2.10   933 2.10
   286  0.708  0.833  0.256-   922 1.85   924 1.85   930 2.06   926 2.06   934 2.10   936 2.10
   287  0.292  0.833  0.256-   923 1.85  1001 1.85   931 2.06   927 2.06   935 2.10  1013 2.10
   288  0.792  0.833  0.256-   924 1.85  1002 1.85   932 2.06   928 2.06   936 2.10  1014 2.10
   289  0.167  0.833  0.377-   933 1.89   863 1.99   867 1.99   941 1.99   945 1.99   953 2.10
   290  0.667  0.833  0.377-   934 1.89   942 1.99   946 1.99   864 1.99   868 1.99   954 2.10
   291  0.250  0.833  0.377-   935 1.89   941 1.99   943 1.99   945 1.99   947 1.99   955 2.10
   292  0.750  0.833  0.377-   936 1.89   944 1.99   948 1.99   942 1.99   946 1.99   956 2.10
   293  0.208  0.667  0.384-   951 1.92   949 1.92   701 1.98   945 1.98   939 2.02   937 2.02
   294  0.708  0.667  0.384-   950 1.92   952 1.92   702 1.98   946 1.98   938 2.02   940 2.02
   295  0.292  0.667  0.384-   951 1.92  1029 1.92   703 1.98   947 1.98   939 2.02  1017 2.02
   296  0.792  0.667  0.384-   952 1.92  1030 1.92   704 1.98   948 1.98   940 2.02  1018 2.02
   297  0.167  0.667  0.500-   643 1.97   879 1.97   721 1.97   957 1.97   969 2.01   949 2.01
   298  0.667  0.667  0.500-   722 1.97   958 1.97   880 1.97   644 1.97   970 2.01   950 2.01
   299  0.250  0.667  0.500-   721 1.97   723 1.97   957 1.97   959 1.97   971 2.01   951 2.01
   300  0.750  0.667  0.500-   724 1.97   960 1.97   958 1.97   722 1.97   972 2.01   952 2.01
   301  0.208  0.833  0.500-   967 1.97   965 1.97   955 1.97   953 1.97   961 2.00   957 2.00
   302  0.708  0.833  0.500-   966 1.97   954 1.97   968 1.97   956 1.97   962 2.00   958 2.00
   303  0.292  0.833  0.500-   967 1.97  1045 1.97   955 1.97  1033 1.97   963 2.00   959 2.00
   304  0.792  0.833  0.500-   968 1.97   956 1.97  1046 1.97  1034 1.97   964 2.00   960 2.00
   305  0.167  0.833  0.623-   985 1.89   895 1.99   899 1.99   973 1.99   977 1.99   965 2.10
   306  0.667  0.833  0.623-   986 1.89   974 1.99   978 1.99   896 1.99   900 1.99   966 2.10
   307  0.250  0.833  0.623-   987 1.89   975 1.99   973 1.99   979 1.99   977 1.99   967 2.10
   308  0.750  0.833  0.623-   988 1.89   976 1.99   980 1.99   974 1.99   978 1.99   968 2.10
   309  0.208  0.667  0.616-   971 1.92   969 1.92   733 1.98   977 1.98   983 2.02   981 2.02
   310  0.708  0.667  0.616-   970 1.92   972 1.92   734 1.98   978 1.98   982 2.02   984 2.02
   311  0.292  0.667  0.616-   971 1.92  1049 1.92   735 1.98   979 1.98   983 2.02  1061 2.02
   312  0.792  0.667  0.616-   972 1.92  1050 1.92   736 1.98   980 1.98   984 2.02  1062 2.02
   313  0.167  0.667  0.732-   981 1.84   911 1.96   675 1.96   753 1.96   989 1.96
   314  0.667  0.667  0.732-   982 1.84   754 1.96   990 1.96   676 1.96   912 1.96
   315  0.250  0.667  0.732-   983 1.84   755 1.96   753 1.96   989 1.96   991 1.96
   316  0.750  0.667  0.732-   984 1.84   756 1.96   992 1.96   990 1.96   754 1.96
   317  0.208  0.833  0.744-   999 1.85   997 1.85   993 2.06   989 2.06   987 2.10   985 2.10
   318  0.708  0.833  0.744-   998 1.85  1000 1.85   994 2.06   990 2.06   986 2.10   988 2.10
   319  0.292  0.833  0.744-   999 1.85  1077 1.85   995 2.06   991 2.06   987 2.10  1065 2.10
   320  0.792  0.833  0.744-  1000 1.85  1078 1.85   996 2.06   992 2.06   988 2.10  1066 2.10
   321  0.333  0.667  0.268-  1017 1.84  1005 1.96   769 1.96   691 1.96   927 1.96
   322  0.833  0.667  0.268-  1018 1.84  1006 1.96   770 1.96   692 1.96   928 1.96
   323  0.417  0.667  0.268-  1019 1.84  1005 1.96   769 1.96  1007 1.96   771 1.96
   324  0.917  0.667  0.268-  1020 1.84  1008 1.96   772 1.96   770 1.96  1006 1.96
   325  0.375  0.833  0.256-  1001 1.85  1003 1.85  1009 2.06  1005 2.06  1013 2.10  1015 2.10
   326  0.875  0.833  0.256-  1002 1.85  1004 1.85  1010 2.06  1006 2.06  1014 2.10  1016 2.10
   327  0.458  0.833  0.256-   842 1.85  1003 1.85  1011 2.06  1007 2.06   854 2.10  1015 2.10
   328  0.958  0.833  0.256-  1004 1.85   841 1.85  1012 2.06  1008 2.06  1016 2.10   853 2.10
   329  0.333  0.833  0.377-  1013 1.89  1021 1.99  1025 1.99   943 1.99   947 1.99  1033 2.10
   330  0.833  0.833  0.377-  1014 1.89  1022 1.99  1026 1.99   944 1.99   948 1.99  1034 2.10
   331  0.417  0.833  0.377-  1015 1.89  1021 1.99  1025 1.99  1023 1.99  1027 1.99  1035 2.10
   332  0.917  0.833  0.377-  1016 1.89  1024 1.99  1028 1.99  1022 1.99  1026 1.99  1036 2.10
   333  0.375  0.667  0.384-  1029 1.92  1031 1.92   781 1.98  1025 1.98  1019 2.02  1017 2.02
   334  0.875  0.667  0.384-  1030 1.92  1032 1.92   782 1.98  1026 1.98  1018 2.02  1020 2.02
   335  0.458  0.667  0.384-   870 1.92  1031 1.92   783 1.98  1027 1.98   858 2.02  1019 2.02
   336  0.958  0.667  0.384-  1032 1.92   869 1.92   784 1.98  1028 1.98  1020 2.02   857 2.02
   337  0.333  0.667  0.500-   801 1.97  1037 1.97   959 1.97   723 1.97  1049 2.01  1029 2.01
   338  0.833  0.667  0.500-   802 1.97  1038 1.97   960 1.97   724 1.97  1050 2.01  1030 2.01
   339  0.417  0.667  0.500-   801 1.97  1037 1.97   803 1.97  1039 1.97  1051 2.01  1031 2.01
   340  0.917  0.667  0.500-   804 1.97  1040 1.97  1038 1.97   802 1.97  1052 2.01  1032 2.01
   341  0.375  0.833  0.500-  1045 1.97  1047 1.97  1033 1.97  1035 1.97  1041 2.00  1037 2.00
   342  0.875  0.833  0.500-  1046 1.97  1034 1.97  1048 1.97  1036 1.97  1042 2.00  1038 2.00
   343  0.458  0.833  0.500-   886 1.97   874 1.97  1047 1.97  1035 1.97  1043 2.00  1039 2.00
   344  0.958  0.833  0.500-  1048 1.97  1036 1.97   885 1.97   873 1.97  1044 2.00  1040 2.00
   345  0.333  0.833  0.623-  1065 1.89  1053 1.99  1057 1.99   975 1.99   979 1.99  1045 2.10
   346  0.833  0.833  0.623-  1066 1.89  1054 1.99  1058 1.99   976 1.99   980 1.99  1046 2.10
   347  0.417  0.833  0.623-  1067 1.89  1053 1.99  1057 1.99  1055 1.99  1059 1.99  1047 2.10
   348  0.917  0.833  0.623-  1068 1.89  1056 1.99  1060 1.99  1054 1.99  1058 1.99  1048 2.10
   349  0.375  0.667  0.616-  1049 1.92  1051 1.92   813 1.98  1057 1.98  1061 2.02  1063 2.02
   350  0.875  0.667  0.616-  1050 1.92  1052 1.92   814 1.98  1058 1.98  1062 2.02  1064 2.02
   351  0.458  0.667  0.616-   890 1.92  1051 1.92   815 1.98  1059 1.98   902 2.02  1063 2.02
   352  0.958  0.667  0.616-  1052 1.92   889 1.92   816 1.98  1060 1.98  1064 2.02   901 2.02
   353  0.333  0.667  0.732-  1061 1.84   833 1.96  1069 1.96   755 1.96   991 1.96
   354  0.833  0.667  0.732-  1062 1.84   834 1.96  1070 1.96   756 1.96   992 1.96
   355  0.417  0.667  0.732-  1063 1.84   833 1.96  1069 1.96   835 1.96  1071 1.96
   356  0.917  0.667  0.732-  1064 1.84   836 1.96  1072 1.96  1070 1.96   834 1.96
   357  0.375  0.833  0.744-  1077 1.85  1079 1.85  1073 2.06  1069 2.06  1065 2.10  1067 2.10
   358  0.875  0.833  0.744-  1078 1.85  1080 1.85  1074 2.06  1070 2.06  1066 2.10  1068 2.10
   359  0.458  0.833  0.744-   918 1.85  1079 1.85  1075 2.06  1071 2.06   906 2.10  1067 2.10
   360  0.958  0.833  0.744-  1080 1.85   917 1.85  1076 2.06  1072 2.06  1068 2.10   905 2.10
   361  0.000  0.167  0.216-     5 1.85    88 1.85
   362  0.500  0.167  0.216-    87 1.85     6 1.85
   363  0.083  0.167  0.216-     7 1.85     5 1.85
   364  0.583  0.167  0.216-     8 1.85     6 1.85
   365  0.042  0.062  0.256-     1 1.96     3 1.96     5 2.06
   366  0.542  0.062  0.256-     2 1.96     4 1.96     6 2.06
   367  0.125  0.062  0.256-     3 1.96    41 1.96     7 2.06
   368  0.625  0.062  0.256-     4 1.96    42 1.96     8 2.06
   369  0.042  0.271  0.256-   121 1.96   123 1.96     5 2.06
   370  0.542  0.271  0.256-   122 1.96   124 1.96     6 2.06
   371  0.125  0.271  0.256-   123 1.96   161 1.96     7 2.06
   372  0.625  0.271  0.256-   124 1.96   162 1.96     8 2.06
   373  0.000  0.167  0.309-     9 1.89     5 2.10    88 2.10
   374  0.500  0.167  0.309-    10 1.89    87 2.10     6 2.10
   375  0.083  0.167  0.309-    11 1.89     7 2.10     5 2.10
   376  0.583  0.167  0.309-    12 1.89     8 2.10     6 2.10
   377  0.000  0.000  0.334-     1 1.84    13 2.02    96 2.02
   378  0.500  0.000  0.334-     2 1.84    95 2.02    14 2.02
   379  0.083  0.000  0.334-     3 1.84    15 2.02    13 2.02
   380  0.583  0.000  0.334-     4 1.84    16 2.02    14 2.02
   381  0.042  0.233  0.381-   133 1.98     9 1.99    11 1.99
   382  0.542  0.233  0.381-   134 1.98    10 1.99    12 1.99
   383  0.125  0.233  0.381-   135 1.98    49 1.99    11 1.99
   384  0.625  0.233  0.381-   136 1.98    12 1.99    50 1.99
   385  0.042  0.100  0.381-    13 1.98     9 1.99    11 1.99
   386  0.542  0.100  0.381-    14 1.98    10 1.99    12 1.99
   387  0.125  0.100  0.381-    15 1.98    11 1.99    49 1.99
   388  0.625  0.100  0.381-    16 1.98    12 1.99    50 1.99
   389  0.000  0.000  0.428-    13 1.92    96 1.92    17 2.01
   390  0.500  0.000  0.428-    95 1.92    14 1.92    18 2.01
   391  0.083  0.000  0.428-    15 1.92    13 1.92    19 2.01
   392  0.583  0.000  0.428-    16 1.92    14 1.92    20 2.01
   393  0.000  0.167  0.453-    21 1.97   104 1.97     9 2.10
   394  0.500  0.167  0.453-   103 1.97    22 1.97    10 2.10
   395  0.083  0.167  0.453-    23 1.97    21 1.97    11 2.10
   396  0.583  0.167  0.453-    24 1.97    22 1.97    12 2.10
   397  0.042  0.065  0.500-    17 1.97    19 1.97    21 2.00
   398  0.542  0.065  0.500-    18 1.97    20 1.97    22 2.00
   399  0.125  0.065  0.500-    19 1.97    57 1.97    23 2.00
   400  0.625  0.065  0.500-    20 1.97    58 1.97    24 2.00
   401  0.042  0.268  0.500-   137 1.97   139 1.97    21 2.00
   402  0.542  0.268  0.500-   138 1.97   140 1.97    22 2.00
   403  0.125  0.268  0.500-   139 1.97   177 1.97    23 2.00
   404  0.625  0.268  0.500-   140 1.97   178 1.97    24 2.00
   405  0.000  0.167  0.547-    21 1.97   104 1.97    25 2.10
   406  0.500  0.167  0.547-   103 1.97    22 1.97    26 2.10
   407  0.083  0.167  0.547-    23 1.97    21 1.97    27 2.10
   408  0.583  0.167  0.547-    24 1.97    22 1.97    28 2.10
   409  0.000  0.000  0.572-    29 1.92   112 1.92    17 2.01
   410  0.500  0.000  0.572-   111 1.92    30 1.92    18 2.01
   411  0.083  0.000  0.572-    31 1.92    29 1.92    19 2.01
   412  0.583  0.000  0.572-    32 1.92    30 1.92    20 2.01
   413  0.042  0.233  0.619-   149 1.98    25 1.99    27 1.99
   414  0.542  0.233  0.619-   150 1.98    26 1.99    28 1.99
   415  0.125  0.233  0.619-   151 1.98    65 1.99    27 1.99
   416  0.625  0.233  0.619-   152 1.98    28 1.99    66 1.99
   417  0.042  0.100  0.619-    29 1.98    25 1.99    27 1.99
   418  0.542  0.100  0.619-    30 1.98    26 1.99    28 1.99
   419  0.125  0.100  0.619-    31 1.98    27 1.99    65 1.99
   420  0.625  0.100  0.619-    32 1.98    28 1.99    66 1.99
   421  0.000  0.000  0.666-    33 1.84    29 2.02   112 2.02
   422  0.500  0.000  0.666-    34 1.84   111 2.02    30 2.02
   423  0.083  0.000  0.666-    35 1.84    31 2.02    29 2.02
   424  0.583  0.000  0.666-    36 1.84    32 2.02    30 2.02
   425  0.000  0.167  0.691-    25 1.89    37 2.10   120 2.10
   426  0.500  0.167  0.691-    26 1.89   119 2.10    38 2.10
   427  0.083  0.167  0.691-    27 1.89    39 2.10    37 2.10
   428  0.583  0.167  0.691-    28 1.89    40 2.10    38 2.10
   429  0.042  0.062  0.744-    33 1.96    35 1.96    37 2.06
   430  0.542  0.062  0.744-    34 1.96    36 1.96    38 2.06
   431  0.125  0.062  0.744-    35 1.96    73 1.96    39 2.06
   432  0.625  0.062  0.744-    36 1.96    74 1.96    40 2.06
   433  0.042  0.271  0.744-   153 1.96   155 1.96    37 2.06
   434  0.542  0.271  0.744-   154 1.96   156 1.96    38 2.06
   435  0.125  0.271  0.744-   155 1.96   193 1.96    39 2.06
   436  0.625  0.271  0.744-   156 1.96   194 1.96    40 2.06
   437  0.000  0.167  0.784-    37 1.85   120 1.85
   438  0.500  0.167  0.784-   119 1.85    38 1.85
   439  0.083  0.167  0.784-    39 1.85    37 1.85
   440  0.583  0.167  0.784-    40 1.85    38 1.85
   441  0.167  0.167  0.216-     7 1.85    45 1.85
   442  0.667  0.167  0.216-    46 1.85     8 1.85
   443  0.250  0.167  0.216-    45 1.85    47 1.85
   444  0.750  0.167  0.216-    48 1.85    46 1.85
   445  0.208  0.062  0.256-    43 1.96    41 1.96    45 2.06
   446  0.708  0.062  0.256-    42 1.96    44 1.96    46 2.06
   447  0.292  0.062  0.256-    43 1.96    81 1.96    47 2.06
   448  0.792  0.062  0.256-    44 1.96    82 1.96    48 2.06
   449  0.208  0.271  0.256-   163 1.96   161 1.96    45 2.06
   450  0.708  0.271  0.256-   162 1.96   164 1.96    46 2.06
   451  0.292  0.271  0.256-   163 1.96   201 1.96    47 2.06
   452  0.792  0.271  0.256-   164 1.96   202 1.96    48 2.06
   453  0.167  0.167  0.309-    49 1.89     7 2.10    45 2.10
   454  0.667  0.167  0.309-    50 1.89    46 2.10     8 2.10
   455  0.250  0.167  0.309-    51 1.89    47 2.10    45 2.10
   456  0.750  0.167  0.309-    52 1.89    48 2.10    46 2.10
   457  0.167  0.000  0.334-    41 1.84    15 2.02    53 2.02
   458  0.667  0.000  0.334-    42 1.84    54 2.02    16 2.02
   459  0.250  0.000  0.334-    43 1.84    53 2.02    55 2.02
   460  0.750  0.000  0.334-    44 1.84    56 2.02    54 2.02
   461  0.208  0.233  0.381-   173 1.98    51 1.99    49 1.99
   462  0.708  0.233  0.381-   174 1.98    50 1.99    52 1.99
   463  0.292  0.233  0.381-   175 1.98    51 1.99    89 1.99
   464  0.792  0.233  0.381-   176 1.98    52 1.99    90 1.99
   465  0.208  0.100  0.381-    53 1.98    51 1.99    49 1.99
   466  0.708  0.100  0.381-    54 1.98    50 1.99    52 1.99
   467  0.292  0.100  0.381-    55 1.98    51 1.99    89 1.99
   468  0.792  0.100  0.381-    56 1.98    52 1.99    90 1.99
   469  0.167  0.000  0.428-    15 1.92    53 1.92    57 2.01
   470  0.667  0.000  0.428-    54 1.92    16 1.92    58 2.01
   471  0.250  0.000  0.428-    53 1.92    55 1.92    59 2.01
   472  0.750  0.000  0.428-    56 1.92    54 1.92    60 2.01
   473  0.167  0.167  0.453-    23 1.97    61 1.97    49 2.10
   474  0.667  0.167  0.453-    62 1.97    24 1.97    50 2.10
   475  0.250  0.167  0.453-    61 1.97    63 1.97    51 2.10
   476  0.750  0.167  0.453-    64 1.97    62 1.97    52 2.10
   477  0.208  0.065  0.500-    59 1.97    57 1.97    61 2.00
   478  0.708  0.065  0.500-    58 1.97    60 1.97    62 2.00
   479  0.292  0.065  0.500-    59 1.97    97 1.97    63 2.00
   480  0.792  0.065  0.500-    60 1.97    98 1.97    64 2.00
   481  0.208  0.268  0.500-   179 1.97   177 1.97    61 2.00
   482  0.708  0.268  0.500-   178 1.97   180 1.97    62 2.00
   483  0.292  0.268  0.500-   179 1.97   217 1.97    63 2.00
   484  0.792  0.268  0.500-   180 1.97   218 1.97    64 2.00
   485  0.167  0.167  0.547-    23 1.97    61 1.97    65 2.10
   486  0.667  0.167  0.547-    62 1.97    24 1.97    66 2.10
   487  0.250  0.167  0.547-    61 1.97    63 1.97    67 2.10
   488  0.750  0.167  0.547-    64 1.97    62 1.97    68 2.10
   489  0.167  0.000  0.572-    31 1.92    69 1.92    57 2.01
   490  0.667  0.000  0.572-    70 1.92    32 1.92    58 2.01
   491  0.250  0.000  0.572-    69 1.92    71 1.92    59 2.01
   492  0.750  0.000  0.572-    72 1.92    70 1.92    60 2.01
   493  0.208  0.233  0.619-   189 1.98    67 1.99    65 1.99
   494  0.708  0.233  0.619-   190 1.98    66 1.99    68 1.99
   495  0.292  0.233  0.619-   191 1.98    67 1.99   105 1.99
   496  0.792  0.233  0.619-   192 1.98    68 1.99   106 1.99
   497  0.208  0.100  0.619-    69 1.98    67 1.99    65 1.99
   498  0.708  0.100  0.619-    70 1.98    66 1.99    68 1.99
   499  0.292  0.100  0.619-    71 1.98    67 1.99   105 1.99
   500  0.792  0.100  0.619-    72 1.98    68 1.99   106 1.99
   501  0.167  0.000  0.666-    73 1.84    31 2.02    69 2.02
   502  0.667  0.000  0.666-    74 1.84    70 2.02    32 2.02
   503  0.250  0.000  0.666-    75 1.84    71 2.02    69 2.02
   504  0.750  0.000  0.666-    76 1.84    72 2.02    70 2.02
   505  0.167  0.167  0.691-    65 1.89    39 2.10    77 2.10
   506  0.667  0.167  0.691-    66 1.89    78 2.10    40 2.10
   507  0.250  0.167  0.691-    67 1.89    77 2.10    79 2.10
   508  0.750  0.167  0.691-    68 1.89    80 2.10    78 2.10
   509  0.208  0.062  0.744-    75 1.96    73 1.96    77 2.06
   510  0.708  0.062  0.744-    74 1.96    76 1.96    78 2.06
   511  0.292  0.062  0.744-    75 1.96   113 1.96    79 2.06
   512  0.792  0.062  0.744-    76 1.96   114 1.96    80 2.06
   513  0.208  0.271  0.744-   195 1.96   193 1.96    77 2.06
   514  0.708  0.271  0.744-   194 1.96   196 1.96    78 2.06
   515  0.292  0.271  0.744-   195 1.96   233 1.96    79 2.06
   516  0.792  0.271  0.744-   196 1.96   234 1.96    80 2.06
   517  0.167  0.167  0.784-    39 1.85    77 1.85
   518  0.667  0.167  0.784-    78 1.85    40 1.85
   519  0.250  0.167  0.784-    77 1.85    79 1.85
   520  0.750  0.167  0.784-    80 1.85    78 1.85
   521  0.333  0.167  0.216-    85 1.85    47 1.85
   522  0.833  0.167  0.216-    86 1.85    48 1.85
   523  0.417  0.167  0.216-    85 1.85    87 1.85
   524  0.917  0.167  0.216-    88 1.85    86 1.85
   525  0.375  0.062  0.256-    81 1.96    83 1.96    85 2.06
   526  0.875  0.062  0.256-    82 1.96    84 1.96    86 2.06
   527  0.458  0.062  0.256-     2 1.96    83 1.96    87 2.06
   528  0.958  0.062  0.256-    84 1.96     1 1.96    88 2.06
   529  0.375  0.271  0.256-   201 1.96   203 1.96    85 2.06
   530  0.875  0.271  0.256-   202 1.96   204 1.96    86 2.06
   531  0.458  0.271  0.256-   122 1.96   203 1.96    87 2.06
   532  0.958  0.271  0.256-   204 1.96   121 1.96    88 2.06
   533  0.333  0.167  0.309-    89 1.89    85 2.10    47 2.10
   534  0.833  0.167  0.309-    90 1.89    86 2.10    48 2.10
   535  0.417  0.167  0.309-    91 1.89    85 2.10    87 2.10
   536  0.917  0.167  0.309-    92 1.89    88 2.10    86 2.10
   537  0.333  0.000  0.334-    81 1.84    93 2.02    55 2.02
   538  0.833  0.000  0.334-    82 1.84    94 2.02    56 2.02
   539  0.417  0.000  0.334-    83 1.84    93 2.02    95 2.02
   540  0.917  0.000  0.334-    84 1.84    96 2.02    94 2.02
   541  0.375  0.233  0.381-   213 1.98    91 1.99    89 1.99
   542  0.875  0.233  0.381-   214 1.98    90 1.99    92 1.99
   543  0.458  0.233  0.381-   215 1.98    10 1.99    91 1.99
   544  0.958  0.233  0.381-   216 1.98    92 1.99     9 1.99
   545  0.375  0.100  0.381-    93 1.98    91 1.99    89 1.99
   546  0.875  0.100  0.381-    94 1.98    90 1.99    92 1.99
   547  0.458  0.100  0.381-    95 1.98    10 1.99    91 1.99
   548  0.958  0.100  0.381-    96 1.98    92 1.99     9 1.99
   549  0.333  0.000  0.428-    93 1.92    55 1.92    97 2.01
   550  0.833  0.000  0.428-    94 1.92    56 1.92    98 2.01
   551  0.417  0.000  0.428-    93 1.92    95 1.92    99 2.01
   552  0.917  0.000  0.428-    96 1.92    94 1.92   100 2.01
   553  0.333  0.167  0.453-   101 1.97    63 1.97    89 2.10
   554  0.833  0.167  0.453-   102 1.97    64 1.97    90 2.10
   555  0.417  0.167  0.453-   101 1.97   103 1.97    91 2.10
   556  0.917  0.167  0.453-   104 1.97   102 1.97    92 2.10
   557  0.375  0.065  0.500-    97 1.97    99 1.97   101 2.00
   558  0.875  0.065  0.500-    98 1.97   100 1.97   102 2.00
   559  0.458  0.065  0.500-    18 1.97    99 1.97   103 2.00
   560  0.958  0.065  0.500-   100 1.97    17 1.97   104 2.00
   561  0.375  0.268  0.500-   217 1.97   219 1.97   101 2.00
   562  0.875  0.268  0.500-   218 1.97   220 1.97   102 2.00
   563  0.458  0.268  0.500-   138 1.97   219 1.97   103 2.00
   564  0.958  0.268  0.500-   220 1.97   137 1.97   104 2.00
   565  0.333  0.167  0.547-   101 1.97    63 1.97   105 2.10
   566  0.833  0.167  0.547-   102 1.97    64 1.97   106 2.10
   567  0.417  0.167  0.547-   101 1.97   103 1.97   107 2.10
   568  0.917  0.167  0.547-   104 1.97   102 1.97   108 2.10
   569  0.333  0.000  0.572-   109 1.92    71 1.92    97 2.01
   570  0.833  0.000  0.572-   110 1.92    72 1.92    98 2.01
   571  0.417  0.000  0.572-   109 1.92   111 1.92    99 2.01
   572  0.917  0.000  0.572-   112 1.92   110 1.92   100 2.01
   573  0.375  0.233  0.619-   229 1.98   107 1.99   105 1.99
   574  0.875  0.233  0.619-   230 1.98   106 1.99   108 1.99
   575  0.458  0.233  0.619-   231 1.98    26 1.99   107 1.99
   576  0.958  0.233  0.619-   232 1.98   108 1.99    25 1.99
   577  0.375  0.100  0.619-   109 1.98   107 1.99   105 1.99
   578  0.875  0.100  0.619-   110 1.98   106 1.99   108 1.99
   579  0.458  0.100  0.619-   111 1.98    26 1.99   107 1.99
   580  0.958  0.100  0.619-   112 1.98   108 1.99    25 1.99
   581  0.333  0.000  0.666-   113 1.84   109 2.02    71 2.02
   582  0.833  0.000  0.666-   114 1.84   110 2.02    72 2.02
   583  0.417  0.000  0.666-   115 1.84   109 2.02   111 2.02
   584  0.917  0.000  0.666-   116 1.84   112 2.02   110 2.02
   585  0.333  0.167  0.691-   105 1.89   117 2.10    79 2.10
   586  0.833  0.167  0.691-   106 1.89   118 2.10    80 2.10
   587  0.417  0.167  0.691-   107 1.89   117 2.10   119 2.10
   588  0.917  0.167  0.691-   108 1.89   120 2.10   118 2.10
   589  0.375  0.062  0.744-   113 1.96   115 1.96   117 2.06
   590  0.875  0.062  0.744-   114 1.96   116 1.96   118 2.06
   591  0.458  0.062  0.744-    34 1.96   115 1.96   119 2.06
   592  0.958  0.062  0.744-   116 1.96    33 1.96   120 2.06
   593  0.375  0.271  0.744-   233 1.96   235 1.96   117 2.06
   594  0.875  0.271  0.744-   234 1.96   236 1.96   118 2.06
   595  0.458  0.271  0.744-   154 1.96   235 1.96   119 2.06
   596  0.958  0.271  0.744-   236 1.96   153 1.96   120 2.06
   597  0.333  0.167  0.784-   117 1.85    79 1.85
   598  0.833  0.167  0.784-   118 1.85    80 1.85
   599  0.417  0.167  0.784-   117 1.85   119 1.85
   600  0.917  0.167  0.784-   120 1.85   118 1.85
   601  0.000  0.500  0.216-   125 1.85   208 1.85
   602  0.500  0.500  0.216-   207 1.85   126 1.85
   603  0.083  0.500  0.216-   127 1.85   125 1.85
   604  0.583  0.500  0.216-   128 1.85   126 1.85
   605  0.042  0.396  0.256-   121 1.96   123 1.96   125 2.06
   606  0.542  0.396  0.256-   122 1.96   124 1.96   126 2.06
   607  0.125  0.396  0.256-   123 1.96   161 1.96   127 2.06
   608  0.625  0.396  0.256-   124 1.96   162 1.96   128 2.06
   609  0.042  0.604  0.256-   241 1.96   243 1.96   125 2.06
   610  0.542  0.604  0.256-   242 1.96   244 1.96   126 2.06
   611  0.125  0.604  0.256-   243 1.96   281 1.96   127 2.06
   612  0.625  0.604  0.256-   244 1.96   282 1.96   128 2.06
   613  0.000  0.500  0.309-   129 1.89   125 2.10   208 2.10
   614  0.500  0.500  0.309-   130 1.89   207 2.10   126 2.10
   615  0.083  0.500  0.309-   131 1.89   127 2.10   125 2.10
   616  0.583  0.500  0.309-   132 1.89   128 2.10   126 2.10
   617  0.000  0.333  0.334-   121 1.84   133 2.02   216 2.02
   618  0.500  0.333  0.334-   122 1.84   215 2.02   134 2.02
   619  0.083  0.333  0.334-   123 1.84   135 2.02   133 2.02
   620  0.583  0.333  0.334-   124 1.84   136 2.02   134 2.02
   621  0.042  0.567  0.381-   253 1.98   129 1.99   131 1.99
   622  0.542  0.567  0.381-   254 1.98   130 1.99   132 1.99
   623  0.125  0.567  0.381-   255 1.98   169 1.99   131 1.99
   624  0.625  0.567  0.381-   256 1.98   132 1.99   170 1.99
   625  0.042  0.433  0.381-   133 1.98   129 1.99   131 1.99
   626  0.542  0.433  0.381-   134 1.98   130 1.99   132 1.99
   627  0.125  0.433  0.381-   135 1.98   131 1.99   169 1.99
   628  0.625  0.433  0.381-   136 1.98   132 1.99   170 1.99
   629  0.000  0.333  0.428-   133 1.92   216 1.92   137 2.01
   630  0.500  0.333  0.428-   215 1.92   134 1.92   138 2.01
   631  0.083  0.333  0.428-   135 1.92   133 1.92   139 2.01
   632  0.583  0.333  0.428-   136 1.92   134 1.92   140 2.01
   633  0.000  0.500  0.453-   141 1.97   224 1.97   129 2.10
   634  0.500  0.500  0.453-   223 1.97   142 1.97   130 2.10
   635  0.083  0.500  0.453-   143 1.97   141 1.97   131 2.10
   636  0.583  0.500  0.453-   144 1.97   142 1.97   132 2.10
   637  0.042  0.399  0.500-   137 1.97   139 1.97   141 2.00
   638  0.542  0.399  0.500-   138 1.97   140 1.97   142 2.00
   639  0.125  0.399  0.500-   139 1.97   177 1.97   143 2.00
   640  0.625  0.399  0.500-   140 1.97   178 1.97   144 2.00
   641  0.042  0.601  0.500-   257 1.97   259 1.97   141 2.00
   642  0.542  0.601  0.500-   258 1.97   260 1.97   142 2.00
   643  0.125  0.601  0.500-   259 1.97   297 1.97   143 2.00
   644  0.625  0.601  0.500-   260 1.97   298 1.97   144 2.00
   645  0.000  0.500  0.547-   141 1.97   224 1.97   145 2.10
   646  0.500  0.500  0.547-   223 1.97   142 1.97   146 2.10
   647  0.083  0.500  0.547-   143 1.97   141 1.97   147 2.10
   648  0.583  0.500  0.547-   144 1.97   142 1.97   148 2.10
   649  0.000  0.333  0.572-   149 1.92   232 1.92   137 2.01
   650  0.500  0.333  0.572-   231 1.92   150 1.92   138 2.01
   651  0.083  0.333  0.572-   151 1.92   149 1.92   139 2.01
   652  0.583  0.333  0.572-   152 1.92   150 1.92   140 2.01
   653  0.042  0.567  0.619-   269 1.98   145 1.99   147 1.99
   654  0.542  0.567  0.619-   270 1.98   146 1.99   148 1.99
   655  0.125  0.567  0.619-   271 1.98   185 1.99   147 1.99
   656  0.625  0.567  0.619-   272 1.98   148 1.99   186 1.99
   657  0.042  0.433  0.619-   149 1.98   145 1.99   147 1.99
   658  0.542  0.433  0.619-   150 1.98   146 1.99   148 1.99
   659  0.125  0.433  0.619-   151 1.98   147 1.99   185 1.99
   660  0.625  0.433  0.619-   152 1.98   148 1.99   186 1.99
   661  0.000  0.333  0.666-   153 1.84   149 2.02   232 2.02
   662  0.500  0.333  0.666-   154 1.84   231 2.02   150 2.02
   663  0.083  0.333  0.666-   155 1.84   151 2.02   149 2.02
   664  0.583  0.333  0.666-   156 1.84   152 2.02   150 2.02
   665  0.000  0.500  0.691-   145 1.89   157 2.10   240 2.10
   666  0.500  0.500  0.691-   146 1.89   239 2.10   158 2.10
   667  0.083  0.500  0.691-   147 1.89   159 2.10   157 2.10
   668  0.583  0.500  0.691-   148 1.89   160 2.10   158 2.10
   669  0.042  0.396  0.744-   153 1.96   155 1.96   157 2.06
   670  0.542  0.396  0.744-   154 1.96   156 1.96   158 2.06
   671  0.125  0.396  0.744-   155 1.96   193 1.96   159 2.06
   672  0.625  0.396  0.744-   156 1.96   194 1.96   160 2.06
   673  0.042  0.604  0.744-   273 1.96   275 1.96   157 2.06
   674  0.542  0.604  0.744-   274 1.96   276 1.96   158 2.06
   675  0.125  0.604  0.744-   275 1.96   313 1.96   159 2.06
   676  0.625  0.604  0.744-   276 1.96   314 1.96   160 2.06
   677  0.000  0.500  0.784-   157 1.85   240 1.85
   678  0.500  0.500  0.784-   239 1.85   158 1.85
   679  0.083  0.500  0.784-   159 1.85   157 1.85
   680  0.583  0.500  0.784-   160 1.85   158 1.85
   681  0.167  0.500  0.216-   127 1.85   165 1.85
   682  0.667  0.500  0.216-   166 1.85   128 1.85
   683  0.250  0.500  0.216-   165 1.85   167 1.85
   684  0.750  0.500  0.216-   168 1.85   166 1.85
   685  0.208  0.396  0.256-   163 1.96   161 1.96   165 2.06
   686  0.708  0.396  0.256-   162 1.96   164 1.96   166 2.06
   687  0.292  0.396  0.256-   163 1.96   201 1.96   167 2.06
   688  0.792  0.396  0.256-   164 1.96   202 1.96   168 2.06
   689  0.208  0.604  0.256-   283 1.96   281 1.96   165 2.06
   690  0.708  0.604  0.256-   282 1.96   284 1.96   166 2.06
   691  0.292  0.604  0.256-   283 1.96   321 1.96   167 2.06
   692  0.792  0.604  0.256-   284 1.96   322 1.96   168 2.06
   693  0.167  0.500  0.309-   169 1.89   127 2.10   165 2.10
   694  0.667  0.500  0.309-   170 1.89   166 2.10   128 2.10
   695  0.250  0.500  0.309-   171 1.89   167 2.10   165 2.10
   696  0.750  0.500  0.309-   172 1.89   168 2.10   166 2.10
   697  0.167  0.333  0.334-   161 1.84   135 2.02   173 2.02
   698  0.667  0.333  0.334-   162 1.84   174 2.02   136 2.02
   699  0.250  0.333  0.334-   163 1.84   173 2.02   175 2.02
   700  0.750  0.333  0.334-   164 1.84   176 2.02   174 2.02
   701  0.208  0.567  0.381-   293 1.98   171 1.99   169 1.99
   702  0.708  0.567  0.381-   294 1.98   170 1.99   172 1.99
   703  0.292  0.567  0.381-   295 1.98   171 1.99   209 1.99
   704  0.792  0.567  0.381-   296 1.98   172 1.99   210 1.99
   705  0.208  0.433  0.381-   173 1.98   171 1.99   169 1.99
   706  0.708  0.433  0.381-   174 1.98   170 1.99   172 1.99
   707  0.292  0.433  0.381-   175 1.98   171 1.99   209 1.99
   708  0.792  0.433  0.381-   176 1.98   172 1.99   210 1.99
   709  0.167  0.333  0.428-   135 1.92   173 1.92   177 2.01
   710  0.667  0.333  0.428-   174 1.92   136 1.92   178 2.01
   711  0.250  0.333  0.428-   173 1.92   175 1.92   179 2.01
   712  0.750  0.333  0.428-   176 1.92   174 1.92   180 2.01
   713  0.167  0.500  0.453-   143 1.97   181 1.97   169 2.10
   714  0.667  0.500  0.453-   182 1.97   144 1.97   170 2.10
   715  0.250  0.500  0.453-   181 1.97   183 1.97   171 2.10
   716  0.750  0.500  0.453-   184 1.97   182 1.97   172 2.10
   717  0.208  0.399  0.500-   179 1.97   177 1.97   181 2.00
   718  0.708  0.399  0.500-   178 1.97   180 1.97   182 2.00
   719  0.292  0.399  0.500-   179 1.97   217 1.97   183 2.00
   720  0.792  0.399  0.500-   180 1.97   218 1.97   184 2.00
   721  0.208  0.601  0.500-   299 1.97   297 1.97   181 2.00
   722  0.708  0.601  0.500-   298 1.97   300 1.97   182 2.00
   723  0.292  0.601  0.500-   299 1.97   337 1.97   183 2.00
   724  0.792  0.601  0.500-   300 1.97   338 1.97   184 2.00
   725  0.167  0.500  0.547-   143 1.97   181 1.97   185 2.10
   726  0.667  0.500  0.547-   182 1.97   144 1.97   186 2.10
   727  0.250  0.500  0.547-   181 1.97   183 1.97   187 2.10
   728  0.750  0.500  0.547-   184 1.97   182 1.97   188 2.10
   729  0.167  0.333  0.572-   151 1.92   189 1.92   177 2.01
   730  0.667  0.333  0.572-   190 1.92   152 1.92   178 2.01
   731  0.250  0.333  0.572-   189 1.92   191 1.92   179 2.01
   732  0.750  0.333  0.572-   192 1.92   190 1.92   180 2.01
   733  0.208  0.567  0.619-   309 1.98   187 1.99   185 1.99
   734  0.708  0.567  0.619-   310 1.98   186 1.99   188 1.99
   735  0.292  0.567  0.619-   311 1.98   187 1.99   225 1.99
   736  0.792  0.567  0.619-   312 1.98   188 1.99   226 1.99
   737  0.208  0.433  0.619-   189 1.98   187 1.99   185 1.99
   738  0.708  0.433  0.619-   190 1.98   186 1.99   188 1.99
   739  0.292  0.433  0.619-   191 1.98   187 1.99   225 1.99
   740  0.792  0.433  0.619-   192 1.98   188 1.99   226 1.99
   741  0.167  0.333  0.666-   193 1.84   151 2.02   189 2.02
   742  0.667  0.333  0.666-   194 1.84   190 2.02   152 2.02
   743  0.250  0.333  0.666-   195 1.84   191 2.02   189 2.02
   744  0.750  0.333  0.666-   196 1.84   192 2.02   190 2.02
   745  0.167  0.500  0.691-   185 1.89   159 2.10   197 2.10
   746  0.667  0.500  0.691-   186 1.89   198 2.10   160 2.10
   747  0.250  0.500  0.691-   187 1.89   197 2.10   199 2.10
   748  0.750  0.500  0.691-   188 1.89   200 2.10   198 2.10
   749  0.208  0.396  0.744-   195 1.96   193 1.96   197 2.06
   750  0.708  0.396  0.744-   194 1.96   196 1.96   198 2.06
   751  0.292  0.396  0.744-   195 1.96   233 1.96   199 2.06
   752  0.792  0.396  0.744-   196 1.96   234 1.96   200 2.06
   753  0.208  0.604  0.744-   315 1.96   313 1.96   197 2.06
   754  0.708  0.604  0.744-   314 1.96   316 1.96   198 2.06
   755  0.292  0.604  0.744-   315 1.96   353 1.96   199 2.06
   756  0.792  0.604  0.744-   316 1.96   354 1.96   200 2.06
   757  0.167  0.500  0.784-   159 1.85   197 1.85
   758  0.667  0.500  0.784-   198 1.85   160 1.85
   759  0.250  0.500  0.784-   197 1.85   199 1.85
   760  0.750  0.500  0.784-   200 1.85   198 1.85
   761  0.333  0.500  0.216-   205 1.85   167 1.85
   762  0.833  0.500  0.216-   206 1.85   168 1.85
   763  0.417  0.500  0.216-   205 1.85   207 1.85
   764  0.917  0.500  0.216-   208 1.85   206 1.85
   765  0.375  0.396  0.256-   201 1.96   203 1.96   205 2.06
   766  0.875  0.396  0.256-   202 1.96   204 1.96   206 2.06
   767  0.458  0.396  0.256-   122 1.96   203 1.96   207 2.06
   768  0.958  0.396  0.256-   204 1.96   121 1.96   208 2.06
   769  0.375  0.604  0.256-   321 1.96   323 1.96   205 2.06
   770  0.875  0.604  0.256-   322 1.96   324 1.96   206 2.06
   771  0.458  0.604  0.256-   242 1.96   323 1.96   207 2.06
   772  0.958  0.604  0.256-   324 1.96   241 1.96   208 2.06
   773  0.333  0.500  0.309-   209 1.89   205 2.10   167 2.10
   774  0.833  0.500  0.309-   210 1.89   206 2.10   168 2.10
   775  0.417  0.500  0.309-   211 1.89   205 2.10   207 2.10
   776  0.917  0.500  0.309-   212 1.89   208 2.10   206 2.10
   777  0.333  0.333  0.334-   201 1.84   213 2.02   175 2.02
   778  0.833  0.333  0.334-   202 1.84   214 2.02   176 2.02
   779  0.417  0.333  0.334-   203 1.84   213 2.02   215 2.02
   780  0.917  0.333  0.334-   204 1.84   216 2.02   214 2.02
   781  0.375  0.567  0.381-   333 1.98   211 1.99   209 1.99
   782  0.875  0.567  0.381-   334 1.98   210 1.99   212 1.99
   783  0.458  0.567  0.381-   335 1.98   130 1.99   211 1.99
   784  0.958  0.567  0.381-   336 1.98   212 1.99   129 1.99
   785  0.375  0.433  0.381-   213 1.98   211 1.99   209 1.99
   786  0.875  0.433  0.381-   214 1.98   210 1.99   212 1.99
   787  0.458  0.433  0.381-   215 1.98   130 1.99   211 1.99
   788  0.958  0.433  0.381-   216 1.98   212 1.99   129 1.99
   789  0.333  0.333  0.428-   213 1.92   175 1.92   217 2.01
   790  0.833  0.333  0.428-   214 1.92   176 1.92   218 2.01
   791  0.417  0.333  0.428-   213 1.92   215 1.92   219 2.01
   792  0.917  0.333  0.428-   216 1.92   214 1.92   220 2.01
   793  0.333  0.500  0.453-   221 1.97   183 1.97   209 2.10
   794  0.833  0.500  0.453-   222 1.97   184 1.97   210 2.10
   795  0.417  0.500  0.453-   221 1.97   223 1.97   211 2.10
   796  0.917  0.500  0.453-   224 1.97   222 1.97   212 2.10
   797  0.375  0.399  0.500-   217 1.97   219 1.97   221 2.00
   798  0.875  0.399  0.500-   218 1.97   220 1.97   222 2.00
   799  0.458  0.399  0.500-   138 1.97   219 1.97   223 2.00
   800  0.958  0.399  0.500-   220 1.97   137 1.97   224 2.00
   801  0.375  0.601  0.500-   337 1.97   339 1.97   221 2.00
   802  0.875  0.601  0.500-   338 1.97   340 1.97   222 2.00
   803  0.458  0.601  0.500-   258 1.97   339 1.97   223 2.00
   804  0.958  0.601  0.500-   340 1.97   257 1.97   224 2.00
   805  0.333  0.500  0.547-   221 1.97   183 1.97   225 2.10
   806  0.833  0.500  0.547-   222 1.97   184 1.97   226 2.10
   807  0.417  0.500  0.547-   221 1.97   223 1.97   227 2.10
   808  0.917  0.500  0.547-   224 1.97   222 1.97   228 2.10
   809  0.333  0.333  0.572-   229 1.92   191 1.92   217 2.01
   810  0.833  0.333  0.572-   230 1.92   192 1.92   218 2.01
   811  0.417  0.333  0.572-   229 1.92   231 1.92   219 2.01
   812  0.917  0.333  0.572-   232 1.92   230 1.92   220 2.01
   813  0.375  0.567  0.619-   349 1.98   227 1.99   225 1.99
   814  0.875  0.567  0.619-   350 1.98   226 1.99   228 1.99
   815  0.458  0.567  0.619-   351 1.98   146 1.99   227 1.99
   816  0.958  0.567  0.619-   352 1.98   228 1.99   145 1.99
   817  0.375  0.433  0.619-   229 1.98   227 1.99   225 1.99
   818  0.875  0.433  0.619-   230 1.98   226 1.99   228 1.99
   819  0.458  0.433  0.619-   231 1.98   146 1.99   227 1.99
   820  0.958  0.433  0.619-   232 1.98   228 1.99   145 1.99
   821  0.333  0.333  0.666-   233 1.84   229 2.02   191 2.02
   822  0.833  0.333  0.666-   234 1.84   230 2.02   192 2.02
   823  0.417  0.333  0.666-   235 1.84   229 2.02   231 2.02
   824  0.917  0.333  0.666-   236 1.84   232 2.02   230 2.02
   825  0.333  0.500  0.691-   225 1.89   237 2.10   199 2.10
   826  0.833  0.500  0.691-   226 1.89   238 2.10   200 2.10
   827  0.417  0.500  0.691-   227 1.89   237 2.10   239 2.10
   828  0.917  0.500  0.691-   228 1.89   240 2.10   238 2.10
   829  0.375  0.396  0.744-   233 1.96   235 1.96   237 2.06
   830  0.875  0.396  0.744-   234 1.96   236 1.96   238 2.06
   831  0.458  0.396  0.744-   154 1.96   235 1.96   239 2.06
   832  0.958  0.396  0.744-   236 1.96   153 1.96   240 2.06
   833  0.375  0.604  0.744-   353 1.96   355 1.96   237 2.06
   834  0.875  0.604  0.744-   354 1.96   356 1.96   238 2.06
   835  0.458  0.604  0.744-   274 1.96   355 1.96   239 2.06
   836  0.958  0.604  0.744-   356 1.96   273 1.96   240 2.06
   837  0.333  0.500  0.784-   237 1.85   199 1.85
   838  0.833  0.500  0.784-   238 1.85   200 1.85
   839  0.417  0.500  0.784-   237 1.85   239 1.85
   840  0.917  0.500  0.784-   240 1.85   238 1.85
   841  0.000  0.833  0.216-   245 1.85   328 1.85
   842  0.500  0.833  0.216-   327 1.85   246 1.85
   843  0.083  0.833  0.216-   247 1.85   245 1.85
   844  0.583  0.833  0.216-   248 1.85   246 1.85
   845  0.042  0.729  0.256-   241 1.96   243 1.96   245 2.06
   846  0.542  0.729  0.256-   242 1.96   244 1.96   246 2.06
   847  0.125  0.729  0.256-   243 1.96   281 1.96   247 2.06
   848  0.625  0.729  0.256-   244 1.96   282 1.96   248 2.06
   849  0.042  0.938  0.256-     1 1.96     3 1.96   245 2.06
   850  0.542  0.938  0.256-     2 1.96     4 1.96   246 2.06
   851  0.125  0.938  0.256-     3 1.96    41 1.96   247 2.06
   852  0.625  0.938  0.256-     4 1.96    42 1.96   248 2.06
   853  0.000  0.833  0.309-   249 1.89   245 2.10   328 2.10
   854  0.500  0.833  0.309-   250 1.89   327 2.10   246 2.10
   855  0.083  0.833  0.309-   251 1.89   247 2.10   245 2.10
   856  0.583  0.833  0.309-   252 1.89   248 2.10   246 2.10
   857  0.000  0.667  0.334-   241 1.84   253 2.02   336 2.02
   858  0.500  0.667  0.334-   242 1.84   335 2.02   254 2.02
   859  0.083  0.667  0.334-   243 1.84   255 2.02   253 2.02
   860  0.583  0.667  0.334-   244 1.84   256 2.02   254 2.02
   861  0.042  0.900  0.381-    13 1.98   249 1.99   251 1.99
   862  0.542  0.900  0.381-    14 1.98   250 1.99   252 1.99
   863  0.125  0.900  0.381-    15 1.98   251 1.99   289 1.99
   864  0.625  0.900  0.381-    16 1.98   252 1.99   290 1.99
   865  0.042  0.767  0.381-   253 1.98   249 1.99   251 1.99
   866  0.542  0.767  0.381-   254 1.98   250 1.99   252 1.99
   867  0.125  0.767  0.381-   255 1.98   251 1.99   289 1.99
   868  0.625  0.767  0.381-   256 1.98   252 1.99   290 1.99
   869  0.000  0.667  0.428-   253 1.92   336 1.92   257 2.01
   870  0.500  0.667  0.428-   335 1.92   254 1.92   258 2.01
   871  0.083  0.667  0.428-   255 1.92   253 1.92   259 2.01
   872  0.583  0.667  0.428-   256 1.92   254 1.92   260 2.01
   873  0.000  0.833  0.453-   261 1.97   344 1.97   249 2.10
   874  0.500  0.833  0.453-   343 1.97   262 1.97   250 2.10
   875  0.083  0.833  0.453-   263 1.97   261 1.97   251 2.10
   876  0.583  0.833  0.453-   264 1.97   262 1.97   252 2.10
   877  0.042  0.732  0.500-   257 1.97   259 1.97   261 2.00
   878  0.542  0.732  0.500-   258 1.97   260 1.97   262 2.00
   879  0.125  0.732  0.500-   259 1.97   297 1.97   263 2.00
   880  0.625  0.732  0.500-   260 1.97   298 1.97   264 2.00
   881  0.042  0.935  0.500-    17 1.97    19 1.97   261 2.00
   882  0.542  0.935  0.500-    18 1.97    20 1.97   262 2.00
   883  0.125  0.935  0.500-    19 1.97    57 1.97   263 2.00
   884  0.625  0.935  0.500-    20 1.97    58 1.97   264 2.00
   885  0.000  0.833  0.547-   261 1.97   344 1.97   265 2.10
   886  0.500  0.833  0.547-   343 1.97   262 1.97   266 2.10
   887  0.083  0.833  0.547-   263 1.97   261 1.97   267 2.10
   888  0.583  0.833  0.547-   264 1.97   262 1.97   268 2.10
   889  0.000  0.667  0.572-   269 1.92   352 1.92   257 2.01
   890  0.500  0.667  0.572-   351 1.92   270 1.92   258 2.01
   891  0.083  0.667  0.572-   271 1.92   269 1.92   259 2.01
   892  0.583  0.667  0.572-   272 1.92   270 1.92   260 2.01
   893  0.042  0.900  0.619-    29 1.98   265 1.99   267 1.99
   894  0.542  0.900  0.619-    30 1.98   266 1.99   268 1.99
   895  0.125  0.900  0.619-    31 1.98   267 1.99   305 1.99
   896  0.625  0.900  0.619-    32 1.98   268 1.99   306 1.99
   897  0.042  0.767  0.619-   269 1.98   265 1.99   267 1.99
   898  0.542  0.767  0.619-   270 1.98   266 1.99   268 1.99
   899  0.125  0.767  0.619-   271 1.98   267 1.99   305 1.99
   900  0.625  0.767  0.619-   272 1.98   268 1.99   306 1.99
   901  0.000  0.667  0.666-   273 1.84   269 2.02   352 2.02
   902  0.500  0.667  0.666-   274 1.84   351 2.02   270 2.02
   903  0.083  0.667  0.666-   275 1.84   271 2.02   269 2.02
   904  0.583  0.667  0.666-   276 1.84   272 2.02   270 2.02
   905  0.000  0.833  0.691-   265 1.89   277 2.10   360 2.10
   906  0.500  0.833  0.691-   266 1.89   359 2.10   278 2.10
   907  0.083  0.833  0.691-   267 1.89   279 2.10   277 2.10
   908  0.583  0.833  0.691-   268 1.89   280 2.10   278 2.10
   909  0.042  0.729  0.744-   273 1.96   275 1.96   277 2.06
   910  0.542  0.729  0.744-   274 1.96   276 1.96   278 2.06
   911  0.125  0.729  0.744-   275 1.96   313 1.96   279 2.06
   912  0.625  0.729  0.744-   276 1.96   314 1.96   280 2.06
   913  0.042  0.938  0.744-    33 1.96    35 1.96   277 2.06
   914  0.542  0.938  0.744-    34 1.96    36 1.96   278 2.06
   915  0.125  0.938  0.744-    35 1.96    73 1.96   279 2.06
   916  0.625  0.938  0.744-    36 1.96    74 1.96   280 2.06
   917  0.000  0.833  0.784-   277 1.85   360 1.85
   918  0.500  0.833  0.784-   359 1.85   278 1.85
   919  0.083  0.833  0.784-   279 1.85   277 1.85
   920  0.583  0.833  0.784-   280 1.85   278 1.85
   921  0.167  0.833  0.216-   247 1.85   285 1.85
   922  0.667  0.833  0.216-   286 1.85   248 1.85
   923  0.250  0.833  0.216-   285 1.85   287 1.85
   924  0.750  0.833  0.216-   288 1.85   286 1.85
   925  0.208  0.729  0.256-   283 1.96   281 1.96   285 2.06
   926  0.708  0.729  0.256-   282 1.96   284 1.96   286 2.06
   927  0.292  0.729  0.256-   283 1.96   321 1.96   287 2.06
   928  0.792  0.729  0.256-   284 1.96   322 1.96   288 2.06
   929  0.208  0.938  0.256-    43 1.96    41 1.96   285 2.06
   930  0.708  0.938  0.256-    42 1.96    44 1.96   286 2.06
   931  0.292  0.938  0.256-    43 1.96    81 1.96   287 2.06
   932  0.792  0.938  0.256-    44 1.96    82 1.96   288 2.06
   933  0.167  0.833  0.309-   289 1.89   247 2.10   285 2.10
   934  0.667  0.833  0.309-   290 1.89   286 2.10   248 2.10
   935  0.250  0.833  0.309-   291 1.89   287 2.10   285 2.10
   936  0.750  0.833  0.309-   292 1.89   288 2.10   286 2.10
   937  0.167  0.667  0.334-   281 1.84   255 2.02   293 2.02
   938  0.667  0.667  0.334-   282 1.84   294 2.02   256 2.02
   939  0.250  0.667  0.334-   283 1.84   293 2.02   295 2.02
   940  0.750  0.667  0.334-   284 1.84   296 2.02   294 2.02
   941  0.208  0.900  0.381-    53 1.98   291 1.99   289 1.99
   942  0.708  0.900  0.381-    54 1.98   290 1.99   292 1.99
   943  0.292  0.900  0.381-    55 1.98   291 1.99   329 1.99
   944  0.792  0.900  0.381-    56 1.98   292 1.99   330 1.99
   945  0.208  0.767  0.381-   293 1.98   291 1.99   289 1.99
   946  0.708  0.767  0.381-   294 1.98   290 1.99   292 1.99
   947  0.292  0.767  0.381-   295 1.98   291 1.99   329 1.99
   948  0.792  0.767  0.381-   296 1.98   292 1.99   330 1.99
   949  0.167  0.667  0.428-   255 1.92   293 1.92   297 2.01
   950  0.667  0.667  0.428-   294 1.92   256 1.92   298 2.01
   951  0.250  0.667  0.428-   293 1.92   295 1.92   299 2.01
   952  0.750  0.667  0.428-   296 1.92   294 1.92   300 2.01
   953  0.167  0.833  0.453-   263 1.97   301 1.97   289 2.10
   954  0.667  0.833  0.453-   302 1.97   264 1.97   290 2.10
   955  0.250  0.833  0.453-   301 1.97   303 1.97   291 2.10
   956  0.750  0.833  0.453-   304 1.97   302 1.97   292 2.10
   957  0.208  0.732  0.500-   299 1.97   297 1.97   301 2.00
   958  0.708  0.732  0.500-   298 1.97   300 1.97   302 2.00
   959  0.292  0.732  0.500-   299 1.97   337 1.97   303 2.00
   960  0.792  0.732  0.500-   300 1.97   338 1.97   304 2.00
   961  0.208  0.935  0.500-    59 1.97    57 1.97   301 2.00
   962  0.708  0.935  0.500-    58 1.97    60 1.97   302 2.00
   963  0.292  0.935  0.500-    59 1.97    97 1.97   303 2.00
   964  0.792  0.935  0.500-    60 1.97    98 1.97   304 2.00
   965  0.167  0.833  0.547-   263 1.97   301 1.97   305 2.10
   966  0.667  0.833  0.547-   302 1.97   264 1.97   306 2.10
   967  0.250  0.833  0.547-   301 1.97   303 1.97   307 2.10
   968  0.750  0.833  0.547-   304 1.97   302 1.97   308 2.10
   969  0.167  0.667  0.572-   271 1.92   309 1.92   297 2.01
   970  0.667  0.667  0.572-   310 1.92   272 1.92   298 2.01
   971  0.250  0.667  0.572-   309 1.92   311 1.92   299 2.01
   972  0.750  0.667  0.572-   312 1.92   310 1.92   300 2.01
   973  0.208  0.900  0.619-    69 1.98   307 1.99   305 1.99
   974  0.708  0.900  0.619-    70 1.98   306 1.99   308 1.99
   975  0.292  0.900  0.619-    71 1.98   307 1.99   345 1.99
   976  0.792  0.900  0.619-    72 1.98   308 1.99   346 1.99
   977  0.208  0.767  0.619-   309 1.98   307 1.99   305 1.99
   978  0.708  0.767  0.619-   310 1.98   306 1.99   308 1.99
   979  0.292  0.767  0.619-   311 1.98   307 1.99   345 1.99
   980  0.792  0.767  0.619-   312 1.98   308 1.99   346 1.99
   981  0.167  0.667  0.666-   313 1.84   271 2.02   309 2.02
   982  0.667  0.667  0.666-   314 1.84   310 2.02   272 2.02
   983  0.250  0.667  0.666-   315 1.84   311 2.02   309 2.02
   984  0.750  0.667  0.666-   316 1.84   312 2.02   310 2.02
   985  0.167  0.833  0.691-   305 1.89   279 2.10   317 2.10
   986  0.667  0.833  0.691-   306 1.89   318 2.10   280 2.10
   987  0.250  0.833  0.691-   307 1.89   317 2.10   319 2.10
   988  0.750  0.833  0.691-   308 1.89   320 2.10   318 2.10
   989  0.208  0.729  0.744-   315 1.96   313 1.96   317 2.06
   990  0.708  0.729  0.744-   314 1.96   316 1.96   318 2.06
   991  0.292  0.729  0.744-   315 1.96   353 1.96   319 2.06
   992  0.792  0.729  0.744-   316 1.96   354 1.96   320 2.06
   993  0.208  0.938  0.744-    75 1.96    73 1.96   317 2.06
   994  0.708  0.938  0.744-    74 1.96    76 1.96   318 2.06
   995  0.292  0.938  0.744-    75 1.96   113 1.96   319 2.06
   996  0.792  0.938  0.744-    76 1.96   114 1.96   320 2.06
   997  0.167  0.833  0.784-   279 1.85   317 1.85
   998  0.667  0.833  0.784-   318 1.85   280 1.85
   999  0.250  0.833  0.784-   317 1.85   319 1.85
  1000  0.750  0.833  0.784-   320 1.85   318 1.85
  1001  0.333  0.833  0.216-   325 1.85   287 1.85
  1002  0.833  0.833  0.216-   326 1.85   288 1.85
  1003  0.417  0.833  0.216-   325 1.85   327 1.85
  1004  0.917  0.833  0.216-   328 1.85   326 1.85
  1005  0.375  0.729  0.256-   321 1.96   323 1.96   325 2.06
  1006  0.875  0.729  0.256-   322 1.96   324 1.96   326 2.06
  1007  0.458  0.729  0.256-   242 1.96   323 1.96   327 2.06
  1008  0.958  0.729  0.256-   324 1.96   241 1.96   328 2.06
  1009  0.375  0.938  0.256-    81 1.96    83 1.96   325 2.06
  1010  0.875  0.938  0.256-    82 1.96    84 1.96   326 2.06
  1011  0.458  0.938  0.256-     2 1.96    83 1.96   327 2.06
  1012  0.958  0.938  0.256-    84 1.96     1 1.96   328 2.06
  1013  0.333  0.833  0.309-   329 1.89   325 2.10   287 2.10
  1014  0.833  0.833  0.309-   330 1.89   326 2.10   288 2.10
  1015  0.417  0.833  0.309-   331 1.89   325 2.10   327 2.10
  1016  0.917  0.833  0.309-   332 1.89   328 2.10   326 2.10
  1017  0.333  0.667  0.334-   321 1.84   333 2.02   295 2.02
  1018  0.833  0.667  0.334-   322 1.84   334 2.02   296 2.02
  1019  0.417  0.667  0.334-   323 1.84   333 2.02   335 2.02
  1020  0.917  0.667  0.334-   324 1.84   336 2.02   334 2.02
  1021  0.375  0.900  0.381-    93 1.98   329 1.99   331 1.99
  1022  0.875  0.900  0.381-    94 1.98   330 1.99   332 1.99
  1023  0.458  0.900  0.381-    95 1.98   250 1.99   331 1.99
  1024  0.958  0.900  0.381-    96 1.98   332 1.99   249 1.99
  1025  0.375  0.767  0.381-   333 1.98   331 1.99   329 1.99
  1026  0.875  0.767  0.381-   334 1.98   330 1.99   332 1.99
  1027  0.458  0.767  0.381-   335 1.98   250 1.99   331 1.99
  1028  0.958  0.767  0.381-   336 1.98   332 1.99   249 1.99
  1029  0.333  0.667  0.428-   333 1.92   295 1.92   337 2.01
  1030  0.833  0.667  0.428-   334 1.92   296 1.92   338 2.01
  1031  0.417  0.667  0.428-   333 1.92   335 1.92   339 2.01
  1032  0.917  0.667  0.428-   336 1.92   334 1.92   340 2.01
  1033  0.333  0.833  0.453-   341 1.97   303 1.97   329 2.10
  1034  0.833  0.833  0.453-   342 1.97   304 1.97   330 2.10
  1035  0.417  0.833  0.453-   341 1.97   343 1.97   331 2.10
  1036  0.917  0.833  0.453-   344 1.97   342 1.97   332 2.10
  1037  0.375  0.732  0.500-   337 1.97   339 1.97   341 2.00
  1038  0.875  0.732  0.500-   338 1.97   340 1.97   342 2.00
  1039  0.458  0.732  0.500-   258 1.97   339 1.97   343 2.00
  1040  0.958  0.732  0.500-   340 1.97   257 1.97   344 2.00
  1041  0.375  0.935  0.500-    97 1.97    99 1.97   341 2.00
  1042  0.875  0.935  0.500-    98 1.97   100 1.97   342 2.00
  1043  0.458  0.935  0.500-    18 1.97    99 1.97   343 2.00
  1044  0.958  0.935  0.500-   100 1.97    17 1.97   344 2.00
  1045  0.333  0.833  0.547-   341 1.97   303 1.97   345 2.10
  1046  0.833  0.833  0.547-   342 1.97   304 1.97   346 2.10
  1047  0.417  0.833  0.547-   341 1.97   343 1.97   347 2.10
  1048  0.917  0.833  0.547-   344 1.97   342 1.97   348 2.10
  1049  0.333  0.667  0.572-   349 1.92   311 1.92   337 2.01
  1050  0.833  0.667  0.572-   350 1.92   312 1.92   338 2.01
  1051  0.417  0.667  0.572-   349 1.92   351 1.92   339 2.01
  1052  0.917  0.667  0.572-   352 1.92   350 1.92   340 2.01
[...]
     22.28480     15.13724     10.56495         0.006760      0.085086      0.019562
      0.00000     13.16351     11.85855        -0.010919      0.027206      1.323564
     17.82780     13.16351     11.85855         0.000312     -0.010463      1.323286
      2.97131     13.16351     11.85855        -0.020216      0.001221      1.324268
     20.79920     13.16351     11.85855        -0.005354     -0.013274      1.329477
      0.00000     16.45439     12.57352         0.000620     -0.005549     -1.029116
     17.82780     16.45439     12.57352        -0.021982      0.005266     -1.027304
      2.97131     16.45439     12.57352         0.020487     -0.004394     -1.033174
     20.79920     16.45439     12.57352        -0.003556      0.005614     -1.027374
      1.48565     14.45029     13.86853        -0.024852      0.510926     -0.001278
     19.31350     14.45029     13.86853         0.013766      0.481255     -0.023420
      4.45696     14.45029     13.86853         0.009836      0.484710      0.016845
     22.28480     14.45029     13.86853        -0.005154      0.497614      0.001071
      1.48565     18.45849     13.86853        -0.001142     -0.484075     -0.010012
     19.31350     18.45849     13.86853         0.006900     -0.518233      0.009354
      4.45696     18.45849     13.86853         0.000921     -0.483957      0.005043
     22.28480     18.45849     13.86853         0.004706     -0.524815      0.003547
      0.00000     16.45439     15.16355         0.012815     -0.001018      1.027043
     17.82780     16.45439     15.16355        -0.006176     -0.006216      1.015613
      2.97131     16.45439     15.16355        -0.007704     -0.001675      1.028465
     20.79920     16.45439     15.16355        -0.003199     -0.016267      1.042504
      0.00000     13.16351     15.87852        -0.024827      0.015388     -1.322744
     17.82780     13.16351     15.87852         0.011679     -0.002176     -1.330435
      2.97131     13.16351     15.87852        -0.022232     -0.016994     -1.324860
     20.79920     13.16351     15.87852         0.004616     -0.006803     -1.354840
      1.48565     17.77154     17.17212         0.002812     -0.080595      0.000805
     19.31350     17.77154     17.17212         0.005558     -0.091249      0.006521
      4.45696     17.77154     17.17212         0.008200     -0.089917     -0.006134
     22.28480     17.77154     17.17212         0.002911     -0.082771      0.011281
      1.48565     15.13724     17.17212         0.027724      0.078283     -0.012416
     19.31350     15.13724     17.17212         0.002645      0.084330     -0.002500
      4.45696     15.13724     17.17212         0.022682      0.101422     -0.012874
     22.28480     15.13724     17.17212        -0.011023      0.063512      0.001345
      0.00000     13.16351     18.46047         0.010055     -0.009559     -2.021331
     17.82780     13.16351     18.46047        -0.016115      0.002530     -1.998433
      2.97131     13.16351     18.46047        -0.021721      0.005372     -2.003442
     20.79920     13.16351     18.46047        -0.012266      0.002623     -2.003330
      0.00000     16.45439     19.16122         0.019287     -0.013611      2.039644
     17.82780     16.45439     19.16122         0.015340     -0.009407      2.012506
      2.97131     16.45439     19.16122         0.009412      0.007237      2.020217
     20.79920     16.45439     19.16122        -0.002023     -0.000980      2.054827
      1.48565     14.39677     20.62693         0.013659      1.235582     -0.035872
     19.31350     14.39677     20.62693         0.021162      1.199587     -0.049160
      4.45696     14.39677     20.62693        -0.000517      1.206823     -0.015783
     22.28480     14.39677     20.62693         0.019913      1.199318     -0.017626
      1.48565     18.51202     20.62693        -0.002036     -1.233931     -0.041907
     19.31350     18.51202     20.62693        -0.011461     -1.226458     -0.026933
      4.45696     18.51202     20.62693         0.017154     -1.187685     -0.034311
     22.28480     18.51202     20.62693        -0.022982     -1.220939     -0.040682
      0.00000     16.45439     21.74323         0.010559     -0.002018      2.107656
     17.82780     16.45439     21.74323         0.009110     -0.007136      2.095617
      2.97131     16.45439     21.74323        -0.005354      0.020684      2.084329
     20.79920     16.45439     21.74323        -0.003192      0.007328      2.097264
      5.94262     16.45439      5.99384        -0.009313      0.010511     -2.101439
     23.77050     16.45439      5.99384        -0.024887      0.017442     -2.083555
      8.91392     16.45439      5.99384        -0.024457      0.000234     -2.110567
     26.74180     16.45439      5.99384         0.010797     -0.019906     -2.090447
      7.42827     14.39677      7.11014        -0.006448      1.233407      0.040773
     25.25610     14.39677      7.11014        -0.030793      1.222329      0.036414
     10.39958     14.39677      7.11014        -0.006618      1.244558      0.042247
     28.22740     14.39677      7.11014        -0.002058      1.220463      0.034477
      7.42827     18.51202      7.11014         0.013183     -1.212666      0.039198
     25.25610     18.51202      7.11014        -0.015027     -1.184223      0.022567
     10.39958     18.51202      7.11014        -0.004083     -1.196780      0.042764
     28.22740     18.51202      7.11014        -0.011893     -1.237086      0.030703
      5.94262     16.45439      8.57585        -0.004148      0.022005     -2.016846
     23.77050     16.45439      8.57585        -0.001021     -0.006516     -2.017016
      8.91392     16.45439      8.57585        -0.016320     -0.013410     -2.026327
     26.74180     16.45439      8.57585        -0.008963     -0.002849     -2.011073
      5.94262     13.16351      9.27660         0.010827      0.008357      2.011837
     23.77050     13.16351      9.27660        -0.007588     -0.005572      2.020004
      8.91392     13.16351      9.27660         0.005212     -0.000270      2.007286
     26.74180     13.16351      9.27660        -0.019757      0.000228      2.011035
      7.42827     17.77154     10.56495        -0.015174     -0.075407      0.004442
     25.25610     17.77154     10.56495        -0.005040     -0.073899      0.021024
     10.39958     17.77154     10.56495        -0.013294     -0.107796     -0.000138
     28.22740     17.77154     10.56495         0.018426     -0.098007      0.000304
      7.42827     15.13724     10.56495        -0.001976      0.071007     -0.009095
     25.25610     15.13724     10.56495        -0.010300      0.092592     -0.008372
     10.39958     15.13724     10.56495        -0.003865      0.078597      0.015772
     28.22740     15.13724     10.56495         0.041414      0.087285      0.002776
      5.94262     13.16351     11.85855        -0.000441      0.006378      1.322254
     23.77050     13.16351     11.85855         0.001659     -0.006086      1.338416
      8.91392     13.16351     11.85855        -0.003311     -0.000320      1.336976
     26.74180     13.16351     11.85855         0.009782     -0.005995      1.327785
      5.94262     16.45439     12.57352         0.011871     -0.000333     -1.018820
     23.77050     16.45439     12.57352         0.006593     -0.008813     -1.053981
      8.91392     16.45439     12.57352         0.001904     -0.007797     -1.031115
     26.74180     16.45439     12.57352         0.017539      0.011405     -1.047974
      7.42827     14.45029     13.86853        -0.024538      0.516289      0.003958
     25.25610     14.45029     13.86853         0.005973      0.524210      0.009685
     10.39958     14.45029     13.86853        -0.014084      0.518901     -0.009659
     28.22740     14.45029     13.86853         0.007681      0.536311      0.001575
      7.42827     18.45849     13.86853        -0.003602     -0.518530      0.004192
     25.25610     18.45849     13.86853         0.007357     -0.519890      0.005710
     10.39958     18.45849     13.86853        -0.005781     -0.497689     -0.008036
     28.22740     18.45849     13.86853        -0.001466     -0.517781     -0.000503
      5.94262     16.45439     15.16355         0.009983     -0.007021      1.017031
     23.77050     16.45439     15.16355        -0.008222      0.024106      1.024025
      8.91392     16.45439     15.16355        -0.020646      0.003873      1.019710
     26.74180     16.45439     15.16355        -0.010497     -0.001405      1.036271
      5.94262     13.16351     15.87852         0.001722     -0.003811     -1.338003
     23.77050     13.16351     15.87852         0.022012      0.008730     -1.340622
      8.91392     13.16351     15.87852        -0.007439      0.002498     -1.313468
     26.74180     13.16351     15.87852         0.008686      0.002121     -1.321719
      7.42827     17.77154     17.17212         0.005427     -0.106417      0.003112
     25.25610     17.77154     17.17212         0.048314     -0.086280      0.002295
     10.39958     17.77154     17.17212        -0.000049     -0.059909     -0.021982
     28.22740     17.77154     17.17212         0.005823     -0.105823     -0.001349
      7.42827     15.13724     17.17212         0.000628      0.090638      0.004246
     25.25610     15.13724     17.17212         0.006712      0.083747     -0.000569
     10.39958     15.13724     17.17212         0.017639      0.108679     -0.006000
     28.22740     15.13724     17.17212         0.003153      0.089299     -0.011729
      5.94262     13.16351     18.46047        -0.004935      0.000298     -2.020298
     23.77050     13.16351     18.46047        -0.016624     -0.002341     -1.998929
      8.91392     13.16351     18.46047        -0.017353      0.013969     -1.997818
     26.74180     13.16351     18.46047        -0.001953      0.011749     -2.006914
      5.94262     16.45439     19.16122        -0.008984     -0.022422      2.050526
     23.77050     16.45439     19.16122        -0.010506      0.004766      2.014221
      8.91392     16.45439     19.16122         0.005195     -0.001831      1.989300
     26.74180     16.45439     19.16122        -0.001997      0.002643      2.018449
      7.42827     14.39677     20.62693         0.024069      1.231748     -0.039666
     25.25610     14.39677     20.62693         0.021329      1.207649     -0.031286
     10.39958     14.39677     20.62693         0.003737      1.197906     -0.040229
     28.22740     14.39677     20.62693         0.011368      1.231018     -0.037898
      7.42827     18.51202     20.62693        -0.007728     -1.224860     -0.038975
     25.25610     18.51202     20.62693        -0.010891     -1.197979     -0.017587
     10.39958     18.51202     20.62693         0.010000     -1.223480     -0.029757
     28.22740     18.51202     20.62693        -0.025957     -1.214776     -0.023540
      5.94262     16.45439     21.74323         0.007499      0.000442      2.112268
     23.77050     16.45439     21.74323        -0.017459     -0.008734      2.092578
      8.91392     16.45439     21.74323         0.006302      0.009897      2.089767
     26.74180     16.45439     21.74323        -0.010478      0.011941      2.088923
     11.88523     16.45439      5.99384        -0.017260      0.005734     -2.095083
     29.71310     16.45439      5.99384         0.033660      0.022015     -2.093419
     14.85654     16.45439      5.99384        -0.009654     -0.009806     -2.099295
     32.68440     16.45439      5.99384         0.006005     -0.005159     -2.081052
     13.37089     14.39677      7.11014         0.021236      1.194965      0.036407
     31.19870     14.39677      7.11014         0.010676      1.223481      0.036933
     16.34219     14.39677      7.11014         0.028570      1.202852      0.032882
     34.17000     14.39677      7.11014         0.007637      1.214631      0.042508
     13.37089     18.51202      7.11014         0.001391     -1.222595      0.023198
     31.19870     18.51202      7.11014         0.011454     -1.236706      0.040818
     16.34219     18.51202      7.11014        -0.011297     -1.236027      0.034358
     34.17000     18.51202      7.11014        -0.013980     -1.240549      0.037724
     11.88523     16.45439      8.57585        -0.018935     -0.002196     -2.002025
     29.71310     16.45439      8.57585         0.006586     -0.000550     -2.018310
     14.85654     16.45439      8.57585         0.010325     -0.005972     -2.007128
     32.68440     16.45439      8.57585         0.012308      0.002132     -2.006027
     11.88523     13.16351      9.27660         0.014673      0.012510      1.996062
     29.71310     13.16351      9.27660        -0.015395     -0.000224      2.015276
     14.85654     13.16351      9.27660         0.010392      0.026311      2.005165
     32.68440     13.16351      9.27660         0.014803      0.016253      2.012171
     13.37089     17.77154     10.56495        -0.008516     -0.048415      0.010345
     31.19870     17.77154     10.56495         0.026681     -0.084436      0.015776
     16.34219     17.77154     10.56495         0.004332     -0.081829      0.013109
     34.17000     17.77154     10.56495         0.001293     -0.079597      0.007965
     13.37089     15.13724     10.56495         0.004716      0.100003      0.006570
     31.19870     15.13724     10.56495         0.008771      0.073372     -0.001872
     16.34219     15.13724     10.56495         0.023249      0.066647     -0.004447
     34.17000     15.13724     10.56495        -0.004007      0.083612      0.002595
     11.88523     13.16351     11.85855        -0.008367      0.010055      1.322760
     29.71310     13.16351     11.85855         0.019609      0.003404      1.332545
     14.85654     13.16351     11.85855         0.017439     -0.015601      1.312546
     32.68440     13.16351     11.85855        -0.017047     -0.008562      1.329539
     11.88523     16.45439     12.57352         0.004542     -0.004915     -1.052624
     29.71310     16.45439     12.57352        -0.013079     -0.016415     -1.020473
     14.85654     16.45439     12.57352        -0.010346     -0.006242     -1.038794
     32.68440     16.45439     12.57352         0.004485      0.002423     -1.040290
     13.37089     14.45029     13.86853         0.000831      0.516246     -0.022325
     31.19870     14.45029     13.86853         0.003536      0.505166     -0.006133
     16.34219     14.45029     13.86853        -0.016204      0.522796     -0.011329
     34.17000     14.45029     13.86853        -0.000976      0.520000      0.012026
     13.37089     18.45849     13.86853         0.004394     -0.507253      0.003791
     31.19870     18.45849     13.86853        -0.023178     -0.461459     -0.005525
     16.34219     18.45849     13.86853        -0.002006     -0.513859     -0.001266
     34.17000     18.45849     13.86853        -0.003049     -0.527163      0.018809
     11.88523     16.45439     15.16355        -0.007041      0.000541      1.034250
     29.71310     16.45439     15.16355        -0.001687      0.015992      1.032808
     14.85654     16.45439     15.16355         0.008611     -0.004055      1.029521
     32.68440     16.45439     15.16355         0.003664     -0.008543      1.031807
     11.88523     13.16351     15.87852         0.011717     -0.007255     -1.335391
     29.71310     13.16351     15.87852         0.002784      0.004632     -1.347794
     14.85654     13.16351     15.87852        -0.006497      0.010349     -1.340253
     32.68440     13.16351     15.87852        -0.002748     -0.004982     -1.338976
     13.37089     17.77154     17.17212         0.008663     -0.088138      0.007544
     31.19870     17.77154     17.17212         0.006776     -0.071366     -0.016552
     16.34219     17.77154     17.17212         0.006470     -0.066959      0.002110
     34.17000     17.77154     17.17212         0.012444     -0.070407      0.004929
     13.37089     15.13724     17.17212         0.012624      0.096805     -0.001785
     31.19870     15.13724     17.17212        -0.031354      0.081127     -0.004425
     16.34219     15.13724     17.17212        -0.003796      0.074724      0.003112
     34.17000     15.13724     17.17212         0.014753      0.090166      0.016604
     11.88523     13.16351     18.46047         0.001969      0.004489     -2.012411
     29.71310     13.16351     18.46047        -0.016937     -0.016425     -2.009657
     14.85654     13.16351     18.46047         0.014877     -0.005218     -2.011079
     32.68440     13.16351     18.46047        -0.007016      0.001822     -2.028662
     11.88523     16.45439     19.16122         0.027295     -0.006484      2.028935
     29.71310     16.45439     19.16122         0.017021      0.010762      1.991530
     14.85654     16.45439     19.16122         0.009682     -0.007358      2.017347
     32.68440     16.45439     19.16122         0.004452     -0.008954      2.023058
     13.37089     14.39677     20.62693         0.009038      1.252775     -0.002610
     31.19870     14.39677     20.62693        -0.008088      1.205509     -0.020863
     16.34219     14.39677     20.62693        -0.018731      1.203102     -0.036641
     34.17000     14.39677     20.62693        -0.001646      1.197386     -0.049466
     13.37089     18.51202     20.62693         0.004834     -1.215156     -0.044132
     31.19870     18.51202     20.62693         0.005372     -1.239237     -0.029962
     16.34219     18.51202     20.62693         0.010050     -1.201285     -0.034212
     34.17000     18.51202     20.62693         0.018457     -1.227503     -0.038586
     11.88523     16.45439     21.74323        -0.012843     -0.028439      2.074961
     29.71310     16.45439     21.74323         0.016766      0.004111      2.088023
     14.85654     16.45439     21.74323        -0.006403      0.023763      2.065372
     32.68440     16.45439     21.74323         0.017402      0.001516      2.087218
 -----------------------------------------------------------------------------------
    total drift:                               -0.504593     -0.104622      0.261774


--------------------------------------------------------------------------------------------------------



  FREE ENERGIE OF THE ION-ELECTRON SYSTEM (eV)
  ---------------------------------------------------
  free  energy   TOTEN  =    -12722.60578738 eV

  energy  without entropy=   -12722.60578738  energy(sigma->0) =   -12722.60578738



--------------------------------------------------------------------------------------------------------


    POTLOK:  cpu time    1.0455: real time    1.0458


--------------------------------------------------------------------------------------------------------


     LOOP+:  cpu time 1758.6760: real time 1760.0038
    4ORBIT:  cpu time    0.0000: real time    0.0000

 total amount of memory used by VASP MPI-rank0   447116. kBytes
=======================================================================

   base      :      30000. kBytes
   nonlr-proj:     196018. kBytes
   fftplans  :      29526. kBytes
   grid      :      41760. kBytes
   one-center:        264. kBytes
   wavefun   :     149548. kBytes

  
  
 General timing and accounting informations for this job:
 ========================================================
  
                  Total CPU time used (sec):     2233.459
                            User time (sec):     2230.716
                          System time (sec):        2.743
                         Elapsed time (sec):     2237.612
  
                   Maximum memory used (kb):      999520.
                   Average memory used (kb):           0.
  
                          Minor page faults:       100709
                          Major page faults:            7
                 Voluntary context switches:         9072
