 vasp.5.4.4.18Apr17-6-g9f103f2a35 (build Mar 14 2021 20:37:43) complex           
 executed on    HPECrayEX-GNU-MKL date 2021.03.27  05:30:10
 running on  256 total cores
 distrk:  each k-point on  128 cores,    2 groups
 distr:  one band on NCORES_PER_BAND=  32 cores,    4 groups


--------------------------------------------------------------------------------------------------------


 INCAR:
 POTCAR:    PAW_PBE Cd 06Sep2000                  
 POTCAR:    PAW_PBE Te 08Apr2002                  

 ----------------------------------------------------------------------------- 
|                                                                             |
|           W    W    AA    RRRRR   N    N  II  N    N   GGGG   !!!           |
|           W    W   A  A   R    R  NN   N  II  NN   N  G    G  !!!           |
|           W    W  A    A  R    R  N N  N  II  N N  N  G       !!!           |
|           W WW W  AAAAAA  RRRRR   N  N N  II  N  N N  G  GGG   !            |
|           WW  WW  A    A  R   R   N   NN  II  N   NN  G    G                |
|           W    W  A    A  R    R  N    N  II  N    N   GGGG   !!!           |
|                                                                             |
|      You have enabled k-point parallelism (KPAR>1).                         |
|      This developmental code was originally  written by Paul Kent at ORNL,  |
|      and carefully double checked in Vienna.                                |
|      GW as well as linear response parallelism added by Martijn Marsman     |
|      and Georg Kresse.                                                      |
|      Carefully verify results versus KPAR=1.                                |
|      Report problems to Paul Kent and Vienna.                               |
|                                                                             |
 ----------------------------------------------------------------------------- 

 POTCAR:    PAW_PBE Cd 06Sep2000                  
   VRHFIN =Cd : s2 d10                                                          
   LEXCH  = PE                                                                  
   EATOM  =  1293.1815 eV,   95.0462 Ry                                         
                                                                                
   TITEL  = PAW_PBE Cd 06Sep2000                                                
   LULTRA =        F    use ultrasoft PP ?                                      
   IUNSCR =        1    unscreen: 0-lin 1-nonlin 2-no                           
   RPACOR =    2.000    partial core radius                                     
   POMASS =  112.411; ZVAL   =   12.000    mass and valenz                      
   RCORE  =    2.300    outmost cutoff radius                                   
   RWIGS  =    2.980; RWIGS  =    1.577    wigner-seitz radius (au A)           
   ENMAX  =  274.336; ENMIN  =  205.752 eV                                      
   RCLOC  =    2.054    cutoff for local pot                                    
   LCOR   =        T    correct aug charges                                     
   LPAW   =        T    paw PP                                                  
   EAUG   =  456.106                                                            
   DEXC   =    0.000                                                            
   RMAX   =    2.358    core radius for proj-oper                               
   RAUG   =    1.300    factor for augmentation sphere                          
   RDEP   =    2.450    radius for radial grids                                 
   RDEPT  =    1.955    core radius for aug-charge                              
                                                                                
   Atomic configuration                                                         
   12 entries                                                                   
     n  l   j            E        occ.                                          
     1  0  0.50    -26519.7817   2.0000                                         
     2  0  0.50     -3936.9612   2.0000                                         
     2  1  1.50     -3532.2230   6.0000                                         
     3  0  0.50      -733.7908   2.0000                                         
     3  1  1.50      -601.0792   6.0000                                         
     3  2  2.50      -393.5307  10.0000                                         
     4  0  0.50      -105.8977   2.0000                                         
     4  1  1.50       -66.9488   6.0000                                         
     4  2  2.50       -11.7331  10.0000                                         
     5  0  0.50        -5.6592   2.0000                                         
     5  1  0.50        -1.3606   0.0000                                         
     4  3  2.50        -1.3606   0.0000                                         
   Description                                                                  
     l       E           TYP  RCUT    TYP  RCUT                                 
     2    -11.7331479     23  2.300                                             
     2    -13.0937305     23  2.300                                             
     0     -5.6591502     23  2.300                                             
     0     -1.5561433     23  2.300                                             
     1     -2.7211652     23  2.300                                             
     1      8.3548275     23  2.300                                             
  local pseudopotential read in
  partial core-charges read in
  partial kinetic energy density read in
  atomic valenz-charges read in
  non local Contribution for L=           2  read in
    real space projection operators read in
  non local Contribution for L=           2  read in
    real space projection operators read in
  non local Contribution for L=           0  read in
    real space projection operators read in
  non local Contribution for L=           0  read in
    real space projection operators read in
  non local Contribution for L=           1  read in
    real space projection operators read in
  non local Contribution for L=           1  read in
    real space projection operators read in
    PAW grid and wavefunctions read in

   number of l-projection  operators is LMAX  =           6
   number of lm-projection operators is LMMAX =          18

 POTCAR:    PAW_PBE Te 08Apr2002                  
   VRHFIN =Te: s2p4                                                             
   LEXCH  = PE                                                                  
   EATOM  =   223.2721 eV,   16.4100 Ry                                         
                                                                                
   TITEL  = PAW_PBE Te 08Apr2002                                                
   LULTRA =        F    use ultrasoft PP ?                                      
   IUNSCR =        1    unscreen: 0-lin 1-nonlin 2-no                           
   RPACOR =    2.200    partial core radius                                     
   POMASS =  127.600; ZVAL   =    6.000    mass and valenz                      
   RCORE  =    2.300    outmost cutoff radius                                   
   RWIGS  =    2.900; RWIGS  =    1.535    wigner-seitz radius (au A)           
   ENMAX  =  174.982; ENMIN  =  131.236 eV                                      
   ICORE  =        3    local potential                                         
   LCOR   =        T    correct aug charges                                     
   LPAW   =        T    paw PP                                                  
   EAUG   =  368.792                                                            
   DEXC   =    0.000                                                            
   RMAX   =    2.345    core radius for proj-oper                               
   RAUG   =    1.300    factor for augmentation sphere                          
   RDEP   =    2.397    radius for radial grids                                 
   RDEPT  =    2.174    core radius for aug-charge                              
                                                                                
   Atomic configuration                                                         
   13 entries                                                                   
     n  l   j            E        occ.                                          
     1  0  0.50    -31621.2075   2.0000                                         
     2  0  0.50     -4848.7941   2.0000                                         
     2  1  1.50     -4352.1960   6.0000                                         
     3  0  0.50      -964.9612   2.0000                                         
     3  1  1.50      -803.6179   6.0000                                         
     3  2  2.50      -559.8710  10.0000                                         
     4  0  0.50      -164.3522   2.0000                                         
     4  1  1.50      -114.3756   6.0000                                         
     4  2  2.50       -41.6483  10.0000                                         
     5  0  0.50       -15.1072   2.0000                                         
     5  1  0.50        -5.9526   4.0000                                         
     5  2  1.50        -5.4423   0.0000                                         
     4  3  2.50        -5.4423   0.0000                                         
   Description                                                                  
     l       E           TYP  RCUT    TYP  RCUT                                 
     0    -15.1072389     23  2.300                                             
     0    -16.4678215     23  2.300                                             
     1     -5.9526306     23  2.300                                             
     1     -2.4873968     23  2.300                                             
     2     -5.4423304     23  2.300                                             
     3     -1.3605826     23  2.300                                             
  local pseudopotential read in
  partial core-charges read in
  partial kinetic energy density read in
  atomic valenz-charges read in
  non local Contribution for L=           0  read in
    real space projection operators read in
  non local Contribution for L=           0  read in
    real space projection operators read in
  non local Contribution for L=           1  read in
    real space projection operators read in
  non local Contribution for L=           1  read in
    real space projection operators read in
  non local Contribution for L=           2  read in
    real space projection operators read in
    PAW grid and wavefunctions read in

   number of l-projection  operators is LMAX  =           5
   number of lm-projection operators is LMMAX =          13


 ----------------------------------------------------------------------------- 
|                                                                             |
|  ADVICE TO THIS USER RUNNING 'VASP/VAMP'   (HEAR YOUR MASTER'S VOICE ...):  |
|                                                                             |
|      You have a (more or less) 'large supercell' and for larger cells       |
|      it might be more efficient to use real space projection opertators     |
|      So try LREAL= Auto  in the INCAR   file.                               |
|      Mind:          For very  accurate calculation you might also keep the  |
|      reciprocal projection scheme          (i.e. LREAL=.FALSE.)             |
|                                                                             |
 ----------------------------------------------------------------------------- 

  PAW_PBE Cd 06Sep2000                  :
 energy of atom  1       EATOM=-1293.1815
 kinetic energy error for atom=    0.0084 (will be added to EATOM!!)
  PAW_PBE Te 08Apr2002                  :
 energy of atom  2       EATOM= -223.2721
 kinetic energy error for atom=    0.0008 (will be added to EATOM!!)


 POSCAR: Cd33 Te32                               
  positions in direct lattice
  No initial velocities read in
 exchange correlation table for  LEXCH =        8
   RHO(1)=    0.500       N(1)  =     2000
   RHO(2)=  100.500       N(2)  =     4000



--------------------------------------------------------------------------------------------------------


 ion  position               nearest neighbor table
   1  0.004  0.996  0.004-  44 2.79  35 2.93  54 2.93  65 2.93  33 2.94
   2  0.001  0.999  0.497-  55 2.82  34 2.82  64 2.82  45 2.84
   3  0.001  0.503  0.001-  63 2.82  56 2.82  37 2.82  42 2.84
   4  1.000  0.501  0.499-  57 2.82  62 2.82  36 2.82  43 2.84
   5  0.497  0.999  0.001-  39 2.82  50 2.82  61 2.82  48 2.84
   6  0.499  0.000  0.499-  38 2.82  51 2.82  60 2.82  49 2.84
   7  0.499  0.501  1.000-  41 2.82  59 2.82  52 2.82  46 2.84
   8  0.501  0.499  0.501-  47 2.82  40 2.83  53 2.83  58 2.83
   9  0.001  0.251  0.253-  54 2.82  34 2.82  62 2.82  42 2.84
  10  0.004  0.254  0.746-  43 2.79  35 2.93  55 2.93  63 2.93  33 2.94
  11  1.000  0.749  0.251-  56 2.82  64 2.82  36 2.82  44 2.84
  12  0.001  0.747  0.749-  65 2.82  57 2.82  37 2.82  45 2.84
  13  0.499  0.250  0.251-  38 2.82  50 2.82  58 2.82  46 2.84
  14  0.497  0.251  0.749-  39 2.82  51 2.82  59 2.82  47 2.84
  15  0.501  0.751  0.249-  48 2.82  40 2.83  52 2.83  60 2.83
  16  0.499  0.749  0.750-  41 2.82  61 2.82  53 2.82  49 2.84
  17  0.251  0.000  0.251-  34 2.82  50 2.82  60 2.82  44 2.84
  18  0.253  0.999  0.749-  35 2.82  51 2.82  61 2.82  45 2.84
  19  0.249  0.499  0.249-  42 2.82  36 2.83  52 2.83  58 2.83
  20  0.251  0.501  0.750-  37 2.82  59 2.82  53 2.82  43 2.84
  21  0.749  0.999  0.253-  54 2.82  38 2.82  64 2.82  48 2.84
  22  0.746  0.996  0.746-  49 2.79  39 2.93  55 2.93  65 2.93  33 2.94
  23  0.750  0.501  0.251-  56 2.82  62 2.82  40 2.82  46 2.84
  24  0.749  0.503  0.749-  63 2.82  57 2.82  41 2.82  47 2.84
  25  0.253  0.251  0.001-  35 2.82  50 2.82  59 2.82  42 2.84
  26  0.251  0.250  0.499-  34 2.82  51 2.82  58 2.82  43 2.84
  27  0.251  0.749  1.000-  37 2.82  61 2.82  52 2.82  44 2.84
  28  0.249  0.751  0.501-  45 2.82  36 2.83  53 2.83  60 2.83
  29  0.746  0.254  0.004-  46 2.79  39 2.93  54 2.93  63 2.93  33 2.94
  30  0.749  0.251  0.497-  55 2.82  38 2.82  62 2.82  47 2.84
  31  0.749  0.747  0.001-  65 2.82  56 2.82  41 2.82  48 2.84
  32  0.750  0.749  0.499-  57 2.82  64 2.82  40 2.82  49 2.84
  33  0.875  0.125  0.875-   1 2.94  10 2.94  22 2.94  29 2.94  35 3.37  39 3.37  54 3.37  55 3.37
                            63 3.37  65 3.37
  34  0.127  0.125  0.375-  17 2.82  26 2.82   2 2.82   9 2.82
  35  0.133  0.125  0.875-  18 2.82  25 2.82  10 2.93   1 2.93  33 3.37
  36  0.126  0.625  0.375-   4 2.82  11 2.82  19 2.83  28 2.83
  37  0.127  0.625  0.875-  20 2.82  27 2.82   3 2.82  12 2.82
  38  0.623  0.125  0.375-  13 2.82   6 2.82  21 2.82  30 2.82
  39  0.617  0.125  0.875-  14 2.82   5 2.82  22 2.93  29 2.93  33 3.37
  40  0.624  0.625  0.375-  23 2.82  32 2.82   8 2.83  15 2.83
  41  0.623  0.625  0.875-   7 2.82  16 2.82  31 2.82  24 2.82
  42  0.125  0.375  0.125-  19 2.82   9 2.84  25 2.84   3 2.84
  43  0.127  0.377  0.623-  10 2.79   4 2.84  26 2.84  20 2.84
  44  0.127  0.873  0.127-   1 2.79  11 2.84  17 2.84  27 2.84
  45  0.125  0.875  0.625-  28 2.82  18 2.84   2 2.84  12 2.84
  46  0.623  0.377  0.127-  29 2.79  13 2.84  23 2.84   7 2.84
  47  0.625  0.375  0.625-   8 2.82  14 2.84  24 2.84  30 2.84
  48  0.625  0.875  0.125-  15 2.82  21 2.84   5 2.84  31 2.84
  49  0.623  0.873  0.623-  22 2.79  32 2.84   6 2.84  16 2.84
  50  0.375  0.125  0.127-  17 2.82  13 2.82   5 2.82  25 2.82
  51  0.375  0.125  0.623-   6 2.82  26 2.82  18 2.82  14 2.82
  52  0.375  0.625  0.126-   7 2.82  27 2.82  19 2.83  15 2.83
  53  0.375  0.625  0.624-  16 2.82  20 2.82   8 2.83  28 2.83
  54  0.875  0.125  0.133-   9 2.82  21 2.82   1 2.93  29 2.93  33 3.37
  55  0.875  0.125  0.617-  30 2.82   2 2.82  22 2.93  10 2.93  33 3.37
  56  0.875  0.625  0.127-  11 2.82  23 2.82   3 2.82  31 2.82
  57  0.875  0.625  0.623-   4 2.82  32 2.82  12 2.82  24 2.82
  58  0.375  0.376  0.375-  26 2.82  13 2.82  19 2.83   8 2.83
  59  0.375  0.377  0.875-   7 2.82  20 2.82  14 2.82  25 2.82
  60  0.375  0.874  0.375-   6 2.82  17 2.82  15 2.83  28 2.83
  61  0.375  0.873  0.875-  16 2.82  27 2.82   5 2.82  18 2.82
  62  0.875  0.377  0.375-   4 2.82  23 2.82   9 2.82  30 2.82
  63  0.875  0.383  0.875-  24 2.82   3 2.82  10 2.93  29 2.93  33 3.37
  64  0.875  0.873  0.375-  11 2.82  32 2.82   2 2.82  21 2.82
  65  0.875  0.867  0.875-  12 2.82  31 2.82   1 2.93  22 2.93  33 3.37


IMPORTANT INFORMATION: All symmetrisations will be switched off!
NOSYMM: (Re-)initialisation of all symmetry stuff for point group C_1.



 KPOINTS: Automatically generated mesh            
  k-points in reciprocal lattice
Space group operators:
 irot       det(A)        alpha          n_x          n_y          n_z        tau_x        tau_y        tau_z
    1     1.000000     0.000000     1.000000     0.000000     0.000000     0.000000     0.000000     0.000000

 ----------------------------------------------------------------------------- 
|                                                                             |
|           W    W    AA    RRRRR   N    N  II  N    N   GGGG   !!!           |
|           W    W   A  A   R    R  NN   N  II  NN   N  G    G  !!!           |
|           W    W  A    A  R    R  N N  N  II  N N  N  G       !!!           |
|           W WW W  AAAAAA  RRRRR   N  N N  II  N  N N  G  GGG   !            |
|           WW  WW  A    A  R   R   N   NN  II  N   NN  G    G                |
|           W    W  A    A  R    R  N    N  II  N    N   GGGG   !!!           |
|                                                                             |
|      Your generating k-point grid is not commensurate to the symmetry       |
|      of the lattice.  This can cause   slow convergence with respect        |
|      to k-points for HF type calculations                                   |
|      suggested SOLUTIONS:                                                   |
|       ) if not already the case, use automatic k-point generation           |
|       ) shift your grid to Gamma (G) (e.g. required for hex or fcc lattice) |
|                                                                             |
 ----------------------------------------------------------------------------- 

 
 Subroutine IBZKPT_HF returns following result:
 ==============================================
 
 Found      8 k-points in 1st BZ
 the following      8 k-points will be used (e.g. in the exchange kernel)
 Following reciprocal coordinates:   # in IRBZ
  0.000000  0.000000  0.000000    0.12500000   1 t-inv F
  0.500000  0.000000  0.000000    0.12500000   2 t-inv F
  0.000000  0.500000  0.000000    0.12500000   3 t-inv F
  0.500000  0.500000  0.000000    0.12500000   4 t-inv F
  0.000000  0.000000  0.500000    0.12500000   5 t-inv F
  0.500000  0.000000  0.500000    0.12500000   6 t-inv F
  0.000000  0.500000  0.500000    0.12500000   7 t-inv F
  0.500000  0.500000  0.500000    0.12500000   8 t-inv F


--------------------------------------------------------------------------------------------------------




 Dimension of arrays:
   k-points           NKPTS =      8   k-points in BZ     NKDIM =      8   number of bands    NBANDS=    772
   number of dos      NEDOS =   2000   number of ions     NIONS =     65
   non local maximal  LDIM  =      6   non local SUM 2l+1 LMDIM =     18
   total plane-waves  NPLWV = 884736
   max r-space proj   IRMAX =      1   max aug-charges    IRDMAX= 183854
   dimension x,y,z NGX =    96 NGY =   96 NGZ =   96
   dimension x,y,z NGXF=   192 NGYF=  192 NGZF=  192
   support grid    NGXF=   384 NGYF=  384 NGZF=  384
   ions per type =              33  32
   NGX,Y,Z   is equivalent  to a cutoff of  12.20, 12.20, 12.20 a.u.
   NGXF,Y,Z  is equivalent  to a cutoff of  24.39, 24.39, 24.39 a.u.

 SYSTEM =  unknown system                          
 POSCAR =  Cd33 Te32                               

 Startparameter for this run:
   NWRITE =      2    write-flag & timer
   PREC   = accura    normal or accurate (medium, high low for compatibility)
   ISTART =      0    job   : 0-new  1-cont  2-samecut
   ICHARG =      1    charge: 1-file 2-atom 10-const
   ISPIN  =      1    spin polarized calculation?
   LNONCOLLINEAR =      T non collinear calculations
   LSORBIT =      T    spin-orbit coupling
   INIWAV =      1    electr: 0-lowe 1-rand  2-diag
   LASPH  =      T    aspherical Exc in radial PAW
   METAGGA=      F    non-selfconsistent MetaGGA calc.

 Electronic Relaxation 1
   ENCUT  =  450.0 eV  33.07 Ry    5.75 a.u.  22.64 22.64 22.64*2*pi/ulx,y,z
   ENINI  =  450.0     initial cutoff
   ENAUG  =  456.1 eV  augmentation charge cutoff
   NELM   =      6;   NELMIN=  2; NELMDL= -5     # of ELM steps 
   EDIFF  = 0.1E-05   stopping-criterion for ELM
   LREAL  =      F    real-space projection
   NLSPLINE    = F    spline interpolate recip. space projectors
   LCOMPAT=      F    compatible to vasp.4.4
   GGA_COMPAT  = T    GGA compatible to vasp.4.4-vasp.4.6
   LMAXPAW     = -100 max onsite density
   LMAXMIX     =    2 max onsite mixed and CHGCAR
   VOSKOWN=      0    Vosko Wilk Nusair interpolation
   ROPT   =    0.00000   0.00000
 Ionic relaxation
   EDIFFG = -.1E-01   stopping-criterion for IOM
   NSW    =      0    number of steps for IOM
   NBLOCK =      1;   KBLOCK =      1    inner block; outer block 
   IBRION =     -1    ionic relax: 0-MD 1-quasi-New 2-CG
   NFREE  =      0    steps in history (QN), initial steepest desc. (CG)
   ISIF   =      2    stress and relaxation
   IWAVPR =     10    prediction:  0-non 1-charg 2-wave 3-comb
   ISYM   =      0    0-nonsym 1-usesym 2-fastsym
   LCORR  =      T    Harris-Foulkes like correction to forces

   POTIM  = 0.5000    time-step for ionic-motion
   TEIN   =    0.0    initial temperature
   TEBEG  =    0.0;   TEEND  =   0.0 temperature during run
   SMASS  =  -3.00    Nose mass-parameter (am)
   estimated Nose-frequenzy (Omega)   =  0.10E-29 period in steps =****** mass=  -0.391E-26a.u.
   SCALEE = 1.0000    scale energy and forces
   NPACO  =    256;   APACO  = 16.0  distance and # of slots for P.C.
   PSTRESS=    0.0 pullay stress

  Mass of Ions in am
   POMASS = 112.41127.60
  Ionic Valenz
   ZVAL   =  12.00  6.00
  Atomic Wigner-Seitz radii
   RWIGS  =  -1.00 -1.00
  virtual crystal weights 
   VCA    =   1.00  1.00
   NELECT =     588.0000    total number of electrons
   NUPDOWN=      -1.0000    fix difference up-down

 DOS related values:
   EMIN   =  10.00;   EMAX   =-10.00  energy-range for DOS
   EFERMI =   0.00
   ISMEAR =     0;   SIGMA  =   0.05  broadening in eV -4-tet -1-fermi 0-gaus

 Electronic relaxation 2 (details)
   IALGO  =     58    algorithm
   LDIAG  =      T    sub-space diagonalisation (order eigenvalues)
   LSUBROT=      F    optimize rotation matrix (better conditioning)
   TURBO    =      0    0=normal 1=particle mesh
   IRESTART =      0    0=no restart 2=restart with 2 vectors
   NREBOOT  =      0    no. of reboots
   NMIN     =      0    reboot dimension
   EREF     =   0.00    reference energy to select bands
   IMIX   =      4    mixing-type and parameters
     AMIX     =   0.40;   BMIX     =  1.00
     AMIX_MAG =   1.60;   BMIX_MAG =  1.00
     AMIN     =   0.10
     WC   =   100.;   INIMIX=   1;  MIXPRE=   1;  MAXMIX= -45

 Intra band minimization:
   WEIMIN = 0.0000     energy-eigenvalue tresh-hold
   EBREAK =  0.32E-09  absolut break condition
   DEPER  =   0.30     relativ break condition  

   TIME   =   0.40     timestep for ELM

  volume/ion in A,a.u.               =      34.48       232.69
  Fermi-wavevector in a.u.,A,eV,Ry     =   1.048017  1.980464 14.943809  1.098339
  Thomas-Fermi vector in A             =   2.182921

 Write flags
   LWAVE        =      T    write WAVECAR
   LDOWNSAMPLE  =      F    k-point downsampling of WAVECAR
   LCHARG       =      T    write CHGCAR
   LVTOT        =      F    write LOCPOT, total local potential
   LVHAR        =      T    write LOCPOT, Hartree potential only
   LELF         =      F    write electronic localiz. function (ELF)
   LORBIT       =     11    0 simple, 1 ext, 2 COOP (PROOUT), +10 PAW based schemes


 Dipole corrections
   LMONO  =      F    monopole corrections only (constant potential shift)
   LDIPOL =      F    correct potential (dipole corrections)
   IDIPOL =      0    1-x, 2-y, 3-z, 4-all directions 
   EPSILON=  1.0000000 bulk dielectric constant

 Exchange correlation treatment:
   GGA     =    --    GGA type
   LEXCH   =     8    internal setting for exchange type
   VOSKOWN=      0    Vosko Wilk Nusair interpolation
   EXXOEP  =     0    0=HF, 1=EXX-LHF (local Hartree Fock) 2=EXX OEP
   LHFCALC =     T    Hartree Fock is set to
   LSYMGRAD=     F    symmetrize gradient (conserves proper symmetry)
   PRECFOCK=fast      Normal, Fast or Accurate (Low or Medium for compatibility)
   LRHFCALC=     F    long range Hartree Fock
   LRSCOR  =     F    long range correlation only (use DFT for short range part)
   LTHOMAS =     F    Thomas Fermi screening in HF
   LMODELHF=     F    short range full HF, long range fraction AEXX
   ENCUT4O =  -1.0   cutoff for four orbital integrals eV
   LMAXFOCK=     4    L truncation for augmentation on plane wave grid
   LMAXFOCKAE=  -1    L truncation for all-electron charge restoration on plane wave grid
   NMAXFOCKAE=   1    number of basis functions for all-electron charge restoration
   LFOCKAEDFT=     F  apply the AE augmentation even for DFT
   NKREDX  =     1    reduce k-point grid by
   NKREDY  =     1    reduce k-point grid by
   NKREDZ  =     1    reduce k-point grid by
   SHIFTRED=     F    shift reduced grid of Gamma
   HFKIDENT=     F    idential grid for each k-point
   ODDONLY =     F    use only odd q-grid points
   EVENONLY=     F    use only even q-grid points
   HFALPHA =   -1.0000 decay constant for conv. correction
   MCALPHA =    0.0000 extent of test-charge in conv. correction in multipole expansion
   AEXX    =    0.2500 exact exchange contribution
   HFSCREEN=    0.2000 screening length (either q_TF or 0.3 A-1)
   HFSCREENC=   0.2000 screening length for correlation (either q_TF or 0.3 A-1)
   HFRCUT  =    0.0000 spherical cutoff for potential kernel
   ALDAX   =    0.7500 LDA exchange part
   AGGAX   =    0.7500 GGA exchange part
   ALDAC   =    1.0000 LDA correlation
   AGGAC   =    1.0000 GGA correlation
   ENCUTFOCK=  -1.0 apply spherical cutoff to Coloumb kernel
   NBANDSGWLOW=     1    first orbital included in HF term
   NBLOCK_FOCK=    64    blocking factor in FOCK_ACC
 Linear response parameters
   LEPSILON=     F    determine dielectric tensor
   LRPA    =     F    only Hartree local field effects (RPA)
   LNABLA  =     F    use nabla operator in PAW spheres
   LVEL    =     F    velocity operator in full k-point grid
   LINTERFAST=   F  fast interpolation
   KINTER  =     0    interpolate to denser k-point grid
   CSHIFT  =0.1000    complex shift for real part using Kramers Kronig
   OMEGAMAX=  -1.0    maximum frequency
   DEG_THRESHOLD= 0.2000000E-02 threshold for treating states as degnerate
   RTIME   =   -0.100 relaxation time in fs
  (WPLASMAI=    0.000 imaginary part of plasma frequency in eV, 0.658/RTIME)
   DFIELD  = 0.0000000 0.0000000 0.0000000 field for delta impulse in time

 Orbital magnetization related:
   ORBITALMAG=     F  switch on orbital magnetization
   LCHIMAG   =     F  perturbation theory with respect to B field
   DQ        =  0.001000  dq finite difference perturbation B field
   LLRAUG    =     F  two centre corrections for induced B field



--------------------------------------------------------------------------------------------------------


 Static calculation
 charge density and potential will be updated during run
 non collinear spin polarized calculation
 Conjugate gradient for all bands (Freysoldt, et al. PRB 79, 241103 (2009))
 preconditioned conjugated gradient                                        
 perform sub-space diagonalisation
    before iterative eigenvector-optimisation
 modified Broyden-mixing scheme, WC =      100.0
 initial mixing is a Kerker type mixing with AMIX =  0.4000 and BMIX =      1.0000
 Hartree-type preconditioning will be used
 using additional bands          478
 reciprocal scheme for non local part
 use partial core corrections
 no Harris-corrections to forces 
 use gradient corrections 
 use of overlap-Matrix (Vanderbilt PP)
 Gauss-broadening in eV      SIGMA  =   0.05


--------------------------------------------------------------------------------------------------------


  energy-cutoff  :      450.00
  volume of cell :     2241.29
      direct lattice vectors                 reciprocal lattice vectors
    13.086768000  0.000000000  0.000000000     0.076413061  0.000000000  0.000000000
     0.000000000 13.086768000  0.000000000     0.000000000  0.076413061  0.000000000
     0.000000000  0.000000000 13.086768000     0.000000000  0.000000000  0.076413061

  length of vectors
    13.086768000 13.086768000 13.086768000     0.076413061  0.076413061  0.076413061



 k-points in units of 2pi/SCALE and weight: Automatically generated mesh            
   0.00000000  0.00000000  0.00000000       0.125
   0.03820653  0.00000000  0.00000000       0.125
   0.00000000  0.03820653  0.00000000       0.125
   0.03820653  0.03820653  0.00000000       0.125
   0.00000000  0.00000000  0.03820653       0.125
   0.03820653  0.00000000  0.03820653       0.125
   0.00000000  0.03820653  0.03820653       0.125
   0.03820653  0.03820653  0.03820653       0.125

 k-points in reciprocal lattice and weights: Automatically generated mesh            
   0.00000000  0.00000000  0.00000000       0.125
   0.50000000  0.00000000  0.00000000       0.125
   0.00000000  0.50000000  0.00000000       0.125
   0.50000000  0.50000000  0.00000000       0.125
   0.00000000  0.00000000  0.50000000       0.125
   0.50000000  0.00000000  0.50000000       0.125
   0.00000000  0.50000000  0.50000000       0.125
   0.50000000  0.50000000  0.50000000       0.125

 position of ions in fractional coordinates (direct lattice) 
   0.00448500  0.99551500  0.00448500
   0.00124700  0.99875300  0.49695900
   0.00124700  0.50304100  0.00124700
   0.99962500  0.50121800  0.49878200
   0.49695900  0.99875300  0.00124700
   0.49878100  0.00037500  0.49878100
   0.49878100  0.50121900  0.99962500
   0.50052800  0.49947200  0.50052800
   0.00124700  0.25124700  0.25304000
   0.00448600  0.25448500  0.74551500
   0.99962500  0.74878200  0.25121800
   0.00124700  0.74695900  0.74875300
   0.49878200  0.24962500  0.25121900
   0.49696000  0.25124700  0.74875300
   0.50052800  0.75052800  0.24947200
   0.49878100  0.74878100  0.75037500
   0.25121900  0.00037500  0.25121900
   0.25304000  0.99875300  0.74875300
   0.24947200  0.49947200  0.24947200
   0.25121900  0.50121900  0.75037500
   0.74875300  0.99875300  0.25304000
   0.74551400  0.99551500  0.74551500
   0.75037500  0.50121900  0.25121900
   0.74875300  0.50304000  0.74875300
   0.25304000  0.25124700  0.00124700
   0.25121900  0.24962500  0.49878100
   0.25121900  0.74878100  0.99962500
   0.24947200  0.75052800  0.50052800
   0.74551400  0.25448500  0.00448500
   0.74875300  0.25124700  0.49696000
   0.74875300  0.74695900  0.00124700
   0.75037500  0.74878200  0.49878200
   0.87500000  0.12500000  0.87500000
   0.12665600  0.12500000  0.37500000
   0.13277900  0.12500000  0.87500000
   0.12589200  0.62500000  0.37500000
   0.12665600  0.62500000  0.87500000
   0.62334400  0.12500000  0.37500000
   0.61722100  0.12500000  0.87500000
   0.62410800  0.62500000  0.37500000
   0.62334400  0.62500000  0.87500000
   0.12484800  0.37484800  0.12484800
   0.12748800  0.37748800  0.62251200
   0.12748800  0.87251200  0.12748800
   0.12484800  0.87515200  0.62515200
   0.62251200  0.37748800  0.12748800
   0.62515200  0.37484800  0.62515200
   0.62515200  0.87515200  0.12484800
   0.62251200  0.87251200  0.62251200
   0.37500000  0.12500000  0.12665600
   0.37500000  0.12500000  0.62334400
   0.37500000  0.62500000  0.12589200
   0.37500000  0.62500000  0.62410800
   0.87500000  0.12500000  0.13277900
   0.87500000  0.12500000  0.61722100
   0.87500000  0.62500000  0.12665600
   0.87500000  0.62500000  0.62334400
   0.37500000  0.37589200  0.37500000
   0.37500000  0.37665600  0.87500000
   0.37500000  0.87410800  0.37500000
   0.37500000  0.87334400  0.87500000
   0.87500000  0.37665600  0.37500000
   0.87500000  0.38277900  0.87500000
   0.87500000  0.87334400  0.37500000
   0.87500000  0.86722100  0.87500000

 position of ions in cartesian coordinates  (Angst):
   0.05869415 13.02807385  0.05869415
   0.01631920 13.07044880  6.50358714
   0.01631920  6.58318086  0.01631920
  13.08186046  6.55932368  6.52744432
   6.50358714 13.07044880  0.01631920
   6.52743123  0.00490754  6.52743123
   6.52743123  6.55933677 13.08186046
   6.55029381  6.53647419  6.55029381
   0.01631920  3.28801120  3.31147577
   0.05870724  3.33038615  9.75638185
  13.08186046  9.79913632  3.28763168
   0.01631920  9.77527914  9.79875680
   6.52744432  3.26678446  3.28764477
   6.50360023  3.28801120  9.79875680
   6.55029381  9.82198581  3.26478219
   6.52743123  9.79912323  9.81998354
   3.28764477  0.00490754  3.28764477
   3.31147577 13.07044880  9.79875680
   3.26478219  6.53647419  3.26478219
   3.28764477  6.55933677  9.81998354
   9.79875680 13.07044880  3.31147577
   9.75636876 13.02807385  9.75638185
   9.81998354  6.55933677  3.28764477
   9.79875680  6.58316777  9.79875680
   3.31147577  3.28801120  0.01631920
   3.28764477  3.26678446  6.52743123
   3.28764477  9.79912323 13.08186046
   3.26478219  9.82198581  6.55029381
   9.75636876  3.33038615  0.05869415
   9.79875680  3.28801120  6.50360023
   9.79875680  9.77527914  0.01631920
   9.81998354  9.79913632  6.52744432
  11.45092200  1.63584600 11.45092200
   1.65751769  1.63584600  4.90753800
   1.73764797  1.63584600 11.45092200
   1.64751940  8.17923000  4.90753800
   1.65751769  8.17923000 11.45092200
   8.15755831  1.63584600  4.90753800
   8.07742803  1.63584600 11.45092200
   8.16755660  8.17923000  4.90753800
   8.15755831  8.17923000 11.45092200
   1.63385681  4.90554881  1.63385681
   1.66840588  4.94009788  8.14667012
   1.66840588 11.41836212  1.66840588
   1.63385681 11.45291119  8.18121919
   8.14667012  4.94009788  1.66840588
   8.18121919  4.90554881  8.18121919
   8.18121919 11.45291119  1.63385681
   8.14667012 11.41836212  8.14667012
   4.90753800  1.63584600  1.65751769
   4.90753800  1.63584600  8.15755831
   4.90753800  8.17923000  1.64751940
   4.90753800  8.17923000  8.16755660
  11.45092200  1.63584600  1.73764797
  11.45092200  1.63584600  8.07742803
  11.45092200  8.17923000  1.65751769
  11.45092200  8.17923000  8.15755831
   4.90753800  4.91921140  4.90753800
   4.90753800  4.92920969 11.45092200
   4.90753800 11.43924860  4.90753800
   4.90753800 11.42925031 11.45092200
  11.45092200  4.92920969  4.90753800
  11.45092200  5.00933997 11.45092200
  11.45092200 11.42925031  4.90753800
  11.45092200 11.34912003 11.45092200

 Euler angles ALPHA=     0.0000000  BETA=     0.0000000

 transformation matrix from SAXIS to cartesian coordinates
 ---------------------------------------------------------
     1.0000000 m_x    -0.0000000 m_y     0.0000000 m_z
     0.0000000 m_x     1.0000000 m_y     0.0000000 m_z
    -0.0000000 m_x     0.0000000 m_y     1.0000000 m_z

 transformation matrix from cartesian coordinates to SAXIS
 ---------------------------------------------------------
     1.0000000 m_x     0.0000000 m_y    -0.0000000 m_z
    -0.0000000 m_x     1.0000000 m_y     0.0000000 m_z
     0.0000000 m_x     0.0000000 m_y     1.0000000 m_z




--------------------------------------------------------------------------------------------------------


 k-point  1 :   0.0000 0.0000 0.0000  plane waves:   97002
 k-point  2 :   0.5000 0.0000 0.0000  plane waves:   97356
 k-point  3 :   0.0000 0.5000 0.0000  plane waves:   97356
 k-point  4 :   0.5000 0.5000 0.0000  plane waves:   96960
 k-point  5 :   0.0000 0.0000 0.5000  plane waves:   97356
 k-point  6 :   0.5000 0.0000 0.5000  plane waves:   96960
 k-point  7 :   0.0000 0.5000 0.5000  plane waves:   96960
 k-point  8 :   0.5000 0.5000 0.5000  plane waves:   96832

 maximum and minimum number of plane-waves per node :      3116     2976

 maximum number of plane-waves:     97356
 maximum index in each direction: 
   IXMAX=   22   IYMAX=   22   IZMAX=   22
   IXMIN=  -23   IYMIN=  -23   IZMIN=  -23


 parallel 3D FFT for wavefunctions:
    minimum data exchange during FFTs selected (reduces bandwidth)
 parallel 3D FFT for charge:
    minimum data exchange during FFTs selected (reduces bandwidth)


 FFT grid for exact exchange (Hartree Fock) 
  NGX = 48; NGY = 48; NGZ = 48


 Radii for the augmentation spheres in the non-local exchange
 for species   1 augmentation radius   1.444 (default was   1.070)
       energy cutoff for augmentation   1800.0
 for species   2 augmentation radius   1.606 (default was   1.190)
       energy cutoff for augmentation   1800.0

 real space projection operators:
  total allocation   :       9375.20 KBytes
  max/ min on nodes  :        432.62        141.21

 Maximum index for augmentation-charges in exchange           97
  SETUP_FOCK is finished

 total amount of memory used by VASP MPI-rank0   311151. kBytes
=======================================================================

   base      :      30000. kBytes
   nonl-proj :       5136. kBytes
   fftplans  :      17666. kBytes
   grid      :      21233. kBytes
   one-center:        186. kBytes
   HF        :        129. kBytes
   nonlr-proj:       1424. kBytes
   wavefun   :     235377. kBytes

     INWAV:  cpu time    0.0000: real time    0.0000
 Broyden mixing: mesh for mixing (old mesh)
   NGX = 45   NGY = 45   NGZ = 45
  (NGX  =192   NGY  =192   NGZ  =192)
  gives a total of  91125 points

 initial charge density was supplied:
 charge density of overlapping atoms calculated
 number of electron     588.0000000 magnetization      65.0000000     65.0000000     65.0000000
 keeping initial charge density in first step


--------------------------------------------------------------------------------------------------------


 Maximum index for augmentation-charges         3093 (set IRDMAX)


--------------------------------------------------------------------------------------------------------


 First call to EWALD:  gamma=   0.135
 Maximum number of real-space cells 3x 3x 3
 Maximum number of reciprocal cells 3x 3x 3

    FEWALD:  cpu time    0.0020: real time    0.0020


--------------------------------------- Iteration      1(   1)  ---------------------------------------


    POTLOK:  cpu time    0.8324: real time    0.9096
    SETDIJ:  cpu time    1.9728: real time    1.9732
    TRIAL :  cpu time   27.9553: real time   29.3578
    CORREC:  cpu time    0.0039: real time    0.0039
    --------------------------------------------
      LOOP:  cpu time   30.9762: real time   32.4564

 eigenvalue-minimisations  : 12360
 total energy-change (2. order) : 0.4616888E+04  (-0.2524504E+05)
 number of electron     588.0000000 magnetization      65.0000000     65.0000000     65.0000000
 augmentation part      588.0000000 magnetization      65.0000000     65.0000000     65.0000000

 Free energy of the ion-electron system (eV)
  ---------------------------------------------------
  alpha Z        PSCENC =      1642.45118531
  Ewald energy   TEWEN  =    -33940.17512420
  -Hartree energ DENC   =    -17077.89199325
  -exchange      EXHF   =         0.00000000
  -V(xc)+E(xc)   XCENC  =      -617.56595420
  PAW double counting   =     46020.13618676   -43994.38451653
  entropy T*S    EENTRO =        -0.02684967
  eigenvalues    EBANDS =      2834.91985437
  atomic energy  EATOM  =     49749.42546356
  ---------------------------------------------------
  free energy    TOTEN  =      4616.88825216 eV

  energy without entropy =     4616.91510183  energy(sigma->0) =     4616.90167699
  exchange ACFDT corr.  =         0.00000000  see jH, gK, PRB 81, 115126


--------------------------------------------------------------------------------------------------------




--------------------------------------- Iteration      1(   2)  ---------------------------------------


    TRIAL :  cpu time   29.9284: real time   29.9648
    CORREC:  cpu time    0.0046: real time    0.0046
    --------------------------------------------
      LOOP:  cpu time   29.9418: real time   29.9989

 eigenvalue-minimisations  : 13488
 total energy-change (2. order) :-0.3434612E+04  (-0.3272047E+04)
 number of electron     588.0000000 magnetization      65.0000000     65.0000000     65.0000000
 augmentation part      588.0000000 magnetization      65.0000000     65.0000000     65.0000000

 Free energy of the ion-electron system (eV)
  ---------------------------------------------------
  alpha Z        PSCENC =      1642.45118531
  Ewald energy   TEWEN  =    -33940.17512420
  -Hartree energ DENC   =    -17077.89199325
  -exchange      EXHF   =         0.00000000
  -V(xc)+E(xc)   XCENC  =      -617.56595420
  PAW double counting   =     46020.13618676   -43994.38451653
  entropy T*S    EENTRO =        -0.01199324
  eigenvalues    EBANDS =      -599.70674453
  atomic energy  EATOM  =     49749.42546356
  ---------------------------------------------------
  free energy    TOTEN  =      1182.27650968 eV

  energy without entropy =     1182.28850292  energy(sigma->0) =     1182.28250630
  exchange ACFDT corr.  =         0.00000000  see jH, gK, PRB 81, 115126


--------------------------------------------------------------------------------------------------------




--------------------------------------- Iteration      1(   3)  ---------------------------------------


    TRIAL :  cpu time   30.8717: real time   30.9383
    CORREC:  cpu time    0.0048: real time    0.0048
    --------------------------------------------
      LOOP:  cpu time   30.8879: real time   30.9828

 eigenvalue-minimisations  : 14164
 total energy-change (2. order) :-0.2350384E+03  (-0.2322983E+03)
 number of electron     588.0000000 magnetization      65.0000000     65.0000000     65.0000000
 augmentation part      588.0000000 magnetization      65.0000000     65.0000000     65.0000000

 Free energy of the ion-electron system (eV)
  ---------------------------------------------------
  alpha Z        PSCENC =      1642.45118531
  Ewald energy   TEWEN  =    -33940.17512420
  -Hartree energ DENC   =    -17077.89199325
  -exchange      EXHF   =         0.00000000
  -V(xc)+E(xc)   XCENC  =      -617.56595420
  PAW double counting   =     46020.13618676   -43994.38451653
  entropy T*S    EENTRO =        -0.01251253
  eigenvalues    EBANDS =      -834.74466755
  atomic energy  EATOM  =     49749.42546356
  ---------------------------------------------------
  free energy    TOTEN  =       947.23806738 eV

  energy without entropy =      947.25057991  energy(sigma->0) =      947.24432365
  exchange ACFDT corr.  =         0.00000000  see jH, gK, PRB 81, 115126


--------------------------------------------------------------------------------------------------------




--------------------------------------- Iteration      1(   4)  ---------------------------------------


    TRIAL :  cpu time   30.9739: real time   30.9910
    CORREC:  cpu time    0.0048: real time    0.0048
    --------------------------------------------
      LOOP:  cpu time   30.9914: real time   31.0370

 eigenvalue-minimisations  : 14264
 total energy-change (2. order) :-0.5540270E+01  (-0.5524398E+01)
 number of electron     588.0000000 magnetization      65.0000000     65.0000000     65.0000000
 augmentation part      588.0000000 magnetization      65.0000000     65.0000000     65.0000000

 Free energy of the ion-electron system (eV)
  ---------------------------------------------------
  alpha Z        PSCENC =      1642.45118531
  Ewald energy   TEWEN  =    -33940.17512420
  -Hartree energ DENC   =    -17077.89199325
  -exchange      EXHF   =         0.00000000
  -V(xc)+E(xc)   XCENC  =      -617.56595420
  PAW double counting   =     46020.13618676   -43994.38451653
  entropy T*S    EENTRO =        -0.01278176
  eigenvalues    EBANDS =      -840.28466804
  atomic energy  EATOM  =     49749.42546356
  ---------------------------------------------------
  free energy    TOTEN  =       941.69779766 eV

  energy without entropy =      941.71057942  energy(sigma->0) =      941.70418854
  exchange ACFDT corr.  =         0.00000000  see jH, gK, PRB 81, 115126


--------------------------------------------------------------------------------------------------------




--------------------------------------- Iteration      1(   5)  ---------------------------------------


    TRIAL :  cpu time   32.3327: real time   32.3501
    CORREC:  cpu time    0.0050: real time    0.0050
    CHARGE:  cpu time    1.3772: real time    1.3923
    --------------------------------------------
      LOOP:  cpu time   33.7255: real time   33.7826

 eigenvalue-minimisations  : 15120
 total energy-change (2. order) :-0.1076075E+00  (-0.1074091E+00)
 number of electron     588.0000006 magnetization       0.6809263      0.6809266      0.6809311
 augmentation part      145.5208489 magnetization       0.5825186      0.5823957      0.5824865

 Free energy of the ion-electron system (eV)
  ---------------------------------------------------
  alpha Z        PSCENC =      1642.45118531
  Ewald energy   TEWEN  =    -33940.17512420
  -Hartree energ DENC   =    -17077.89199325
  -exchange      EXHF   =         0.00000000
  -V(xc)+E(xc)   XCENC  =      -617.56595420
  PAW double counting   =     46020.13618676   -43994.38451653
  entropy T*S    EENTRO =        -0.01278157
  eigenvalues    EBANDS =      -840.39227576
  atomic energy  EATOM  =     49749.42546356
  ---------------------------------------------------
  free energy    TOTEN  =       941.59019013 eV

  energy without entropy =      941.60297170  energy(sigma->0) =      941.59658092
  exchange ACFDT corr.  =         0.00000000  see jH, gK, PRB 81, 115126


--------------------------------------------------------------------------------------------------------




--------------------------------------- Iteration      1(   6)  ---------------------------------------


    POTLOK:  cpu time    0.8262: real time    0.8264
    SETDIJ:  cpu time    1.9229: real time    1.9233
    TRIAL :  cpu time 2359.0343: real time 2360.1537
    CORREC:  cpu time 2345.0126: real time 2346.0054
    EDDIAG:  cpu time 2343.4969: real time 2344.4974
    CHARGE:  cpu time    1.3117: real time    1.3126
    --------------------------------------------
      LOOP:  cpu time 7051.6128: real time 7054.7543

 eigenvalue-minimisations  :     0
 total energy-change (2. order) :-0.1075519E+04  (-0.2252622E+07)
 number of electron     588.0000006 magnetization      -0.8084410     -0.6920483     -0.5895058
 augmentation part      151.6862353 magnetization       0.6355095      0.7017591      0.7682846

 Free energy of the ion-electron system (eV)
  ---------------------------------------------------
  alpha Z        PSCENC =      1642.45118531
  Ewald energy   TEWEN  =    -33940.17512420
  -Hartree energ DENC   =    -15675.32568773
  -exchange      EXHF   =      1156.71936780
  -V(xc)+E(xc)   XCENC  =      -655.55106940
  PAW double counting   =    120168.37069173  -118079.98784457
  entropy T*S    EENTRO =        -0.00637415
  eigenvalues    EBANDS =     -4433.55059988
  atomic energy  EATOM  =     49749.42546356
  ---------------------------------------------------
  free energy    TOTEN  =      -133.92882616 eV

  energy without entropy =     -133.92245201  energy(sigma->0) =     -133.92563908
  exchange ACFDT corr.  =        -0.01688547  see jH, gK, PRB 81, 115126


--------------------------------------------------------------------------------------------------------


  average scaling for gradient   0.9403


 average (electrostatic) potential at core
  the test charge radii are     1.0698  1.1897
  (the norm of the test charge is              1.0000)
       1 -30.6147       2 -31.4404       3 -31.5272       4 -31.6971       5 -31.6861
       6 -32.0529       7 -32.0766       8 -32.1689       9 -31.3433      10 -30.5669
      11 -31.6387      12 -31.3969      13 -32.0522      14 -31.6756      15 -32.1496
      16 -32.0432      17 -31.8525      18 -31.4948      19 -31.9491      20 -31.8847
      21 -31.4644      22 -30.7968      23 -31.8673      24 -31.4871      25 -31.4533
      26 -31.8551      27 -31.8792      28 -32.0003      29 -30.8111      30 -31.4832
      31 -31.4570      32 -31.8677      33 -28.4465      34 -88.2518      35 -87.1641
      36 -88.4621      37 -88.3615      38 -88.5405      39 -87.5276      40 -88.7304
      41 -88.5366      42 -87.8120      43 -88.1966      44 -88.1587      45 -88.0684
      46 -88.5380      47 -88.2640      48 -88.2308      49 -88.4488      50 -88.6010
      51 -88.6046      52 -88.7817      53 -88.7799      54 -87.0920      55 -87.1883
      56 -88.2494      57 -88.3477      58 -88.7569      59 -88.5901      60 -88.7479
      61 -88.6017      62 -88.3289      63 -87.2164      64 -88.3901      65 -87.1589



 E-fermi :   5.0650     XC(G=0):  -7.3038     alpha+bet : -7.2837


 k-point     1 :       0.0000    0.0000    0.0000
  band No.  band energies     occupation 
      1     -10.9526      1.00000
      2     -10.7510      1.00000
      3     -10.7313      1.00000
      4     -10.7197      1.00000
      5     -10.7045      1.00000
      6     -10.6634      1.00000
      7     -10.6414      1.00000
      8     -10.6313      1.00000
      9     -10.5973      1.00000
     10     -10.5791      1.00000
     11     -10.5651      1.00000
     12     -10.5500      1.00000
     13     -10.5373      1.00000
     14     -10.5356      1.00000
     15     -10.5176      1.00000
     16     -10.4691      1.00000
     17     -10.4615      1.00000
     18     -10.4448      1.00000
     19     -10.4394      1.00000
     20     -10.4161      1.00000
     21     -10.4125      1.00000
     22     -10.3918      1.00000
     23     -10.3749      1.00000
     24     -10.3542      1.00000
     25     -10.3289      1.00000
     26     -10.3148      1.00000
     27     -10.2979      1.00000
     28     -10.2829      1.00000
     29     -10.2691      1.00000
     30     -10.2537      1.00000
     31     -10.2414      1.00000
     32     -10.2319      1.00000
     33     -10.2211      1.00000
     34     -10.1936      1.00000
     35     -10.1803      1.00000
     36     -10.1661      1.00000
     37     -10.1474      1.00000
     38     -10.1290      1.00000
     39     -10.1168      1.00000
     40     -10.1017      1.00000
     41     -10.0808      1.00000
     42     -10.0674      1.00000
     43     -10.0443      1.00000
     44     -10.0166      1.00000
     45      -9.9778      1.00000
     46      -9.9030      1.00000
     47      -9.8506      1.00000
     48      -9.8367      1.00000
     49      -9.6245      1.00000
     50      -9.6134      1.00000
     51      -9.3401      1.00000
     52      -9.3259      1.00000
     53      -9.2911      1.00000
     54      -9.2675      1.00000
     55      -9.2527      1.00000
     56      -9.2399      1.00000
     57      -9.2309      1.00000
     58      -9.2169      1.00000
     59      -9.1945      1.00000
     60      -9.1731      1.00000
     61      -7.8645      1.00000
     62      -7.8615      1.00000
     63      -7.8376      1.00000
     64      -7.8356      1.00000
     65      -7.8268      1.00000
     66      -7.8248      1.00000
     67      -7.7911      1.00000
     68      -7.7868      1.00000
     69      -7.7766      1.00000
     70      -7.7724      1.00000
     71      -7.7574      1.00000
     72      -7.7559      1.00000
     73      -7.7436      1.00000
     74      -7.7423      1.00000
     75      -7.7325      1.00000
     76      -7.7318      1.00000
     77      -7.7181      1.00000
     78      -7.7164      1.00000
     79      -7.7071      1.00000
     80      -7.7064      1.00000
     81      -7.6898      1.00000
     82      -7.6858      1.00000
     83      -7.6620      1.00000
     84      -7.6606      1.00000
     85      -7.6536      1.00000
     86      -7.6521      1.00000
     87      -7.6316      1.00000
     88      -7.6292      1.00000
     89      -7.6060      1.00000
     90      -7.6031      1.00000
     91      -7.5849      1.00000
     92      -7.5842      1.00000
     93      -7.5732      1.00000
     94      -7.5724      1.00000
     95      -7.5629      1.00000
     96      -7.5611      1.00000
     97      -7.5497      1.00000
     98      -7.5489      1.00000
     99      -7.5332      1.00000
    100      -7.5323      1.00000
    101      -7.5221      1.00000
    102      -7.5208      1.00000
    103      -7.5105      1.00000
    104      -7.5094      1.00000
    105      -7.5009      1.00000
    106      -7.4985      1.00000
    107      -7.4965      1.00000
    108      -7.4933      1.00000
    109      -7.4719      1.00000
    110      -7.4710      1.00000
    111      -7.4563      1.00000
    112      -7.4540      1.00000
    113      -7.4361      1.00000
    114      -7.4338      1.00000
    115      -7.4152      1.00000
    116      -7.4133      1.00000
    117      -7.3730      1.00000
    118      -7.3678      1.00000
    119      -7.3466      1.00000
    120      -7.3453      1.00000
    121      -7.3328      1.00000
    122      -7.3312      1.00000
    123      -7.3239      1.00000
    124      -7.3191      1.00000
    125      -7.2852      1.00000
    126      -7.2833      1.00000
    127      -7.2811      1.00000
    128      -7.2703      1.00000
    129      -7.2595      1.00000
    130      -7.2517      1.00000
    131      -7.2278      1.00000
    132      -7.2243      1.00000
    133      -7.2138      1.00000
    134      -7.2014      1.00000
    135      -7.1902      1.00000
    136      -7.1882      1.00000
    137      -7.1857      1.00000
    138      -7.1843      1.00000
    139      -7.1798      1.00000
    140      -7.1780      1.00000
    141      -7.1765      1.00000
    142      -7.1737      1.00000
    143      -7.1711      1.00000
    144      -7.1689      1.00000
    145      -7.1633      1.00000
    146      -7.1617      1.00000
    147      -7.1603      1.00000
    148      -7.1579      1.00000
    149      -7.1503      1.00000
    150      -7.1471      1.00000
    151      -7.1427      1.00000
    152      -7.1400      1.00000
    153      -7.1380      1.00000
    154      -7.1356      1.00000
    155      -7.1325      1.00000
    156      -7.1240      1.00000
    157      -7.1216      1.00000
    158      -7.1198      1.00000
    159      -7.1132      1.00000
    160      -7.1098      1.00000
    161      -7.1060      1.00000
    162      -7.1038      1.00000
    163      -7.0982      1.00000
    164      -7.0939      1.00000
    165      -7.0920      1.00000
    166      -7.0880      1.00000
    167      -7.0773      1.00000
    168      -7.0750      1.00000
    169      -7.0713      1.00000
    170      -7.0650      1.00000
    171      -7.0574      1.00000
    172      -7.0504      1.00000
    173      -7.0487      1.00000
    174      -7.0465      1.00000
    175      -7.0446      1.00000
    176      -7.0393      1.00000
    177      -7.0353      1.00000
    178      -7.0343      1.00000
    179      -7.0314      1.00000
    180      -7.0239      1.00000
    181      -7.0198      1.00000
    182      -7.0180      1.00000
    183      -7.0140      1.00000
    184      -7.0119      1.00000
    185      -7.0073      1.00000
    186      -7.0059      1.00000
    187      -7.0011      1.00000
    188      -6.9947      1.00000
    189      -6.9941      1.00000
    190      -6.9920      1.00000
    191      -6.9860      1.00000
    192      -6.9838      1.00000
    193      -6.9815      1.00000
    194      -6.9764      1.00000
    195      -6.9753      1.00000
    196      -6.9719      1.00000
    197      -6.9640      1.00000
    198      -6.9553      1.00000
    199      -6.9475      1.00000
    200      -6.9443      1.00000
    201      -6.9411      1.00000
    202      -6.9359      1.00000
    203      -6.9316      1.00000
    204      -6.9284      1.00000
    205      -6.9245      1.00000
    206      -6.9231      1.00000
    207      -6.9116      1.00000
    208      -6.9086      1.00000
    209      -6.9018      1.00000
    210      -6.8970      1.00000
    211      -6.8952      1.00000
    212      -6.8893      1.00000
    213      -6.8860      1.00000
    214      -6.8845      1.00000
    215      -6.8755      1.00000
    216      -6.8728      1.00000
    217      -6.8661      1.00000
    218      -6.8612      1.00000
    219      -6.8547      1.00000
    220      -6.8513      1.00000
    221      -6.8482      1.00000
    222      -6.8437      1.00000
    223      -6.8382      1.00000
    224      -6.8350      1.00000
    225      -6.8329      1.00000
    226      -6.8284      1.00000
    227      -6.8255      1.00000
    228      -6.8225      1.00000
    229      -6.8199      1.00000
    230      -6.8160      1.00000
    231      -6.8131      1.00000
    232      -6.8079      1.00000
    233      -6.8041      1.00000
    234      -6.7966      1.00000
    235      -6.7938      1.00000
    236      -6.7883      1.00000
    237      -6.7825      1.00000
    238      -6.7795      1.00000
    239      -6.7743      1.00000
    240      -6.7654      1.00000
    241      -6.7636      1.00000
    242      -6.7486      1.00000
    243      -6.7445      1.00000
    244      -6.7425      1.00000
    245      -6.7368      1.00000
    246      -6.7191      1.00000
    247      -6.7084      1.00000
    248      -6.7001      1.00000
    249      -6.6952      1.00000
    250      -6.6916      1.00000
    251      -6.6786      1.00000
    252      -6.6757      1.00000
    253      -6.6731      1.00000
    254      -6.6682      1.00000
    255      -6.6647      1.00000
    256      -6.6577      1.00000
    257      -6.6481      1.00000
    258      -6.6414      1.00000
    259      -6.6365      1.00000
    260      -6.6248      1.00000
    261      -6.6223      1.00000
    262      -6.6184      1.00000
    263      -6.6046      1.00000
    264      -6.6026      1.00000
    265      -6.5986      1.00000
    266      -6.5953      1.00000
    267      -6.5853      1.00000
    268      -6.5833      1.00000
    269      -6.5742      1.00000
    270      -6.5714      1.00000
    271      -6.5692      1.00000
    272      -6.5672      1.00000
    273      -6.5545      1.00000
    274      -6.5513      1.00000
    275      -6.5428      1.00000
    276      -6.5240      1.00000
    277      -6.5147      1.00000
    278      -6.5048      1.00000
    279      -6.4982      1.00000
    280      -6.4948      1.00000
    281      -6.4928      1.00000
    282      -6.4905      1.00000
    283      -6.4880      1.00000
    284      -6.4869      1.00000
    285      -6.4844      1.00000
    286      -6.4807      1.00000
    287      -6.4734      1.00000
    288      -6.4715      1.00000
    289      -6.4677      1.00000
    290      -6.4637      1.00000
    291      -6.4587      1.00000
    292      -6.4564      1.00000
    293      -6.4514      1.00000
    294      -6.4464      1.00000
    295      -6.4437      1.00000
    296      -6.4375      1.00000
    297      -6.4300      1.00000
    298      -6.4274      1.00000
    299      -6.4237      1.00000
    300      -6.4200      1.00000
    301      -6.4133      1.00000
    302      -6.4078      1.00000
    303      -6.4044      1.00000
    304      -6.4025      1.00000
    305      -6.3978      1.00000
    306      -6.3911      1.00000
    307      -6.3863      1.00000
    308      -6.3834      1.00000
    309      -6.3769      1.00000
    310      -6.3719      1.00000
    311      -6.3623      1.00000
    312      -6.3597      1.00000
    313      -6.3550      1.00000
    314      -6.3494      1.00000
    315      -6.3438      1.00000
    316      -6.3404      1.00000
    317      -6.3371      1.00000
    318      -6.3348      1.00000
    319      -6.3254      1.00000
    320      -6.3172      1.00000
    321      -6.3120      1.00000
    322      -6.3092      1.00000
    323      -6.3075      1.00000
    324      -6.2981      1.00000
    325      -6.2900      1.00000
    326      -6.2784      1.00000
    327      -6.2715      1.00000
    328      -6.2658      1.00000
    329      -6.2587      1.00000
    330      -6.2484      1.00000
    331      -6.2415      1.00000
    332      -6.2354      1.00000
    333      -6.2234      1.00000
    334      -6.2199      1.00000
    335      -6.2132      1.00000
    336      -6.2055      1.00000
    337      -6.1905      1.00000
    338      -6.1811      1.00000
    339      -6.1743      1.00000
    340      -6.1580      1.00000
    341      -6.1496      1.00000
    342      -6.1411      1.00000
    343      -6.1338      1.00000
    344      -6.1232      1.00000
    345      -6.1100      1.00000
    346      -6.0964      1.00000
    347      -6.0877      1.00000
    348      -6.0852      1.00000
    349      -6.0648      1.00000
    350      -6.0536      1.00000
    351      -6.0444      1.00000
    352      -6.0305      1.00000
    353      -5.9718      1.00000
    354      -5.9147      1.00000
    355      -5.8405      1.00000
    356      -5.8376      1.00000
    357      -5.8174      1.00000
    358      -5.8068      1.00000
    359      -5.7803      1.00000
    360      -5.7714      1.00000
    361      -5.7566      1.00000
    362      -5.7443      1.00000
    363      -5.7319      1.00000
    364      -5.7217      1.00000
    365      -5.6955      1.00000
    366      -5.6747      1.00000
    367      -5.6562      1.00000
    368      -5.6012      1.00000
    369      -5.5756      1.00000
    370      -5.5524      1.00000
    371      -5.5296      1.00000
    372      -5.5063      1.00000
    373      -5.4795      1.00000
    374      -5.4669      1.00000
    375      -5.4488      1.00000
    376      -5.4237      1.00000
    377      -5.4027      1.00000
    378      -5.3041      1.00000
    379      -4.2136      1.00000
    380      -4.2023      1.00000
    381      -4.2002      1.00000
    382      -4.1961      1.00000
    383      -3.5929      1.00000
    384      -3.5761      1.00000
    385      -3.5691      1.00000
    386      -3.5651      1.00000
    387      -3.5593      1.00000
    388      -3.5552      1.00000
    389      -3.3101      1.00000
    390      -3.2975      1.00000
    391      -3.2848      1.00000
    392      -3.2760      1.00000
    393      -3.2451      1.00000
    394      -3.2257      1.00000
    395      -3.2145      1.00000
    396      -3.2038      1.00000
    397      -3.1862      1.00000
    398      -3.1698      1.00000
    399      -3.1557      1.00000
    400      -3.1448      1.00000
    401      -3.1139      1.00000
    402      -3.0815      1.00000
    403      -3.0679      1.00000
    404      -3.0559      1.00000
    405      -2.9460      1.00000
    406      -2.9101      1.00000
    407      -2.8922      1.00000
    408      -2.8420      1.00000
    409      -2.7632      1.00000
    410      -2.7345      1.00000
    411      -2.7134      1.00000
    412      -2.6804      1.00000
    413      -2.6352      1.00000
    414      -2.5905      1.00000
    415      -2.5478      1.00000
    416      -2.4858      1.00000
    417      -2.4735      1.00000
    418      -2.4685      1.00000
    419      -2.4525      1.00000
    420      -2.4470      1.00000
    421      -2.4231      1.00000
    422      -2.4050      1.00000
    423      -2.3675      1.00000
    424      -2.3303      1.00000
    425      -2.3082      1.00000
    426      -2.2900      1.00000
    427      -2.2745      1.00000
    428      -2.2639      1.00000
    429      -2.2578      1.00000
    430      -2.2498      1.00000
    431      -2.2334      1.00000
    432      -2.2244      1.00000
    433      -2.1262      1.00000
    434      -2.0699      1.00000
    435      -2.0384      1.00000
    436      -2.0021      1.00000
    437      -1.9749      1.00000
    438      -1.9472      1.00000
    439      -1.6003      1.00000
    440      -1.4766      1.00000
    441      -1.4124      1.00000
    442      -1.3950      1.00000
    443      -1.3876      1.00000
    444      -1.3436      1.00000
    445      -1.3396      1.00000
    446      -1.2843      1.00000
    447      -1.2470      1.00000
    448      -1.2395      1.00000
    449      -1.2208      1.00000
    450      -1.2123      1.00000
    451      -1.1932      1.00000
    452      -1.1698      1.00000
    453      -1.1580      1.00000
    454      -1.1374      1.00000
    455      -1.1208      1.00000
    456      -1.1046      1.00000
    457      -1.0351      1.00000
    458      -1.0188      1.00000
    459      -1.0169      1.00000
    460      -1.0035      1.00000
    461      -0.9840      1.00000
    462      -0.9810      1.00000
    463      -0.9670      1.00000
    464      -0.9620      1.00000
    465      -0.9452      1.00000
    466      -0.9371      1.00000
    467      -0.9293      1.00000
    468      -0.9198      1.00000
    469      -0.9060      1.00000
    470      -0.9008      1.00000
    471      -0.8892      1.00000
    472      -0.8807      1.00000
    473      -0.8527      1.00000
    474      -0.8420      1.00000
    475      -0.8394      1.00000
    476      -0.8311      1.00000
    477      -0.8157      1.00000
    478      -0.8061      1.00000
    479      -0.8028      1.00000
    480      -0.7934      1.00000
    481      -0.7778      1.00000
    482      -0.7696      1.00000
    483      -0.7419      1.00000
    484      -0.7218      1.00000
    485      -0.7069      1.00000
    486      -0.6863      1.00000
    487      -0.6570      1.00000
    488      -0.6510      1.00000
    489      -0.6379      1.00000
    490      -0.6309      1.00000
    491      -0.5997      1.00000
    492      -0.5936      1.00000
    493      -0.5889      1.00000
    494      -0.5691      1.00000
    495      -0.5302      1.00000
    496      -0.5152      1.00000
    497      -0.4980      1.00000
    498      -0.4806      1.00000
    499      -0.4724      1.00000
    500      -0.4604      1.00000
    501      -0.4361      1.00000
    502      -0.3976      1.00000
    503      -0.3457      1.00000
    504      -0.3076      1.00000
    505      -0.2838      1.00000
    506      -0.2588      1.00000
    507      -0.2198      1.00000
    508      -0.2067      1.00000
    509      -0.1492      1.00000
    510      -0.1424      1.00000
    511      -0.0237      1.00000
    512       0.1228      1.00000
    513       0.1372      1.00000
    514       0.1460      1.00000
    515       0.1590      1.00000
    516       0.1669      1.00000
    517       0.1722      1.00000
    518       0.2106      1.00000
    519       0.2221      1.00000
    520       0.2357      1.00000
    521       0.2442      1.00000
    522       0.2612      1.00000
    523       0.2651      1.00000
    524       0.2733      1.00000
    525       0.2886      1.00000
    526       0.3105      1.00000
    527       0.3245      1.00000
    528       0.3312      1.00000
    529       0.3560      1.00000
    530       0.3702      1.00000
    531       0.4048      1.00000
    532       0.4601      1.00000
    533       0.4737      1.00000
    534       0.4836      1.00000
    535       0.4992      1.00000
    536       0.5123      1.00000
    537       0.5229      1.00000
    538       0.5388      1.00000
    539       0.5488      1.00000
    540       0.5588      1.00000
    541       0.5679      1.00000
    542       0.5826      1.00000
    543       0.6052      1.00000
    544       0.6089      1.00000
    545       0.6215      1.00000
    546       0.6281      1.00000
    547       0.6668      1.00000
    548       0.6846      1.00000
    549       0.6970      1.00000
    550       0.7105      1.00000
    551       0.7305      1.00000
    552       0.7544      1.00000
    553       0.7815      1.00000
    554       0.8041      1.00000
    555       0.8153      1.00000
    556       0.8258      1.00000
    557       0.8412      1.00000
    558       0.8628      1.00000
    559       0.8783      1.00000
    560       0.8952      1.00000
    561       0.9055      1.00000
    562       0.9228      1.00000
    563       0.9319      1.00000
    564       0.9334      1.00000
    565       1.0058      1.00000
    566       1.0221      1.00000
    567       1.0923      1.00000
    568       1.0977      1.00000
    569       1.1799      1.00000
    570       1.2232      1.00000
    571       1.2735      1.00000
    572       1.2822      1.00000
    573       1.3450      1.00000
    574       1.4024      1.00000
    575       1.4272      1.00000
    576       1.4633      1.00000
    577       1.8473      1.00000
    578       1.8814      1.00000
    579       1.8865      1.00000
    580       1.9052      1.00000
    581       2.7925      1.00000
    582       2.9281      1.00000
    583       3.1416      1.00000
    584       4.1521      1.00000
    585      14.0635      1.00000
    586      14.1131      1.00000
    587      14.1319      1.00000
    588      14.1568      1.00000
    589       4.1632      0.99465
    590       4.2035      0.99259
    591       4.2238      0.87074
    592       4.2368      0.58308
    593       4.2392      0.00000
    594       4.4773      0.00000
    595       4.6362      0.00000
    596       4.8542      0.00000
    597       4.8761      0.00000
    598       4.8976      0.00000
    599       5.0698      0.00000
    600       5.0757      0.00000
    601       5.1232      0.00000
    602       5.1435      0.00000
    603       5.1526      0.00000
    604       5.2550      0.00000
    605       5.2596      0.00000
    606       5.2659      0.00000
    607       5.3698      0.00000
    608       5.3717      0.00000
    609       5.3864      0.00000
    610       5.3876      0.00000
    611       5.4121      0.00000
    612       5.4155      0.00000
    613       5.4246      0.00000
    614       5.4333      0.00000
    615       5.4395      0.00000
    616       5.4401      0.00000
    617       5.4428      0.00000
    618       5.4464      0.00000
    619       5.4490      0.00000
    620       5.4498      0.00000
    621       5.4505      0.00000
    622       5.4527      0.00000
    623       5.4534      0.00000
    624       5.4614      0.00000
    625       5.4621      0.00000
    626       5.4799      0.00000
    627       5.4807      0.00000
    628       5.4818      0.00000
    629       5.4847      0.00000
    630       5.4858      0.00000
    631       5.4939      0.00000
    632       5.5055      0.00000
    633       5.5109      0.00000
    634       5.5158      0.00000
    635       5.5163      0.00000
    636       5.5304      0.00000
    637       5.5305      0.00000
    638       5.5306      0.00000
    639       5.5380      0.00000
    640       5.5410      0.00000
    641       5.5433      0.00000
    642       5.5479      0.00000
    643       5.5535      0.00000
    644       5.5639      0.00000
    645       5.5685      0.00000
    646       5.5732      0.00000
    647       5.5827      0.00000
    648       5.5893      0.00000
    649       5.5908      0.00000
    650       5.6069      0.00000
    651       6.2093      0.00000
    652       6.2624      0.00000
    653       6.4146      0.00000
    654       6.5213      0.00000
    655       6.5407      0.00000
    656       6.6196      0.00000
    657       6.6774      0.00000
    658       6.7512      0.00000
    659       6.7787      0.00000
    660       6.8402      0.00000
    661       6.9050      0.00000
    662       6.9404      0.00000
    663       6.9581      0.00000
    664       6.9650      0.00000
    665       6.9688      0.00000
    666       6.9859      0.00000
    667       7.0158      0.00000
    668       7.0184      0.00000
    669       7.0442      0.00000
    670       7.0762      0.00000
    671       7.0901      0.00000
    672       7.1225      0.00000
    673       7.1315      0.00000
    674       7.1544      0.00000
    675       7.1590      0.00000
    676       7.1840      0.00000
    677       7.2051      0.00000
    678       7.2142      0.00000
    679       7.2152      0.00000
    680       7.2277      0.00000
    681       7.2710      0.00000
    682       7.2719      0.00000
    683       7.3086      0.00000
    684       7.3165      0.00000
    685       7.3252      0.00000
    686       7.3373      0.00000
    687       7.3399      0.00000
    688       7.3410      0.00000
    689       7.3460      0.00000
    690       7.3814      0.00000
    691       7.3955      0.00000
    692       7.4050      0.00000
    693       7.4051      0.00000
    694       7.4082      0.00000
    695       7.4100      0.00000
    696       7.4249      0.00000
    697       7.4384      0.00000
    698       7.4504      0.00000
    699       7.4587      0.00000
    700       7.4759      0.00000
    701       7.5061      0.00000
    702       7.5091      0.00000
    703       7.5212      0.00000
    704       7.5214      0.00000
    705       7.5397      0.00000
    706       7.5651      0.00000
    707       7.6394      0.00000
    708       7.6416      0.00000
    709       7.6501      0.00000
    710       7.6657      0.00000
    711       7.6682      0.00000
    712       7.6812      0.00000
    713       7.6833      0.00000
    714       7.6905      0.00000
    715       7.6994      0.00000
    716       7.7101      0.00000
    717       7.7193      0.00000
    718       7.7247      0.00000
    719       7.7303      0.00000
    720       7.7321      0.00000
    721       7.7389      0.00000
    722       7.7536      0.00000
    723       7.7630      0.00000
    724       7.7706      0.00000
    725       7.7785      0.00000
    726       7.7797      0.00000
    727       7.7824      0.00000
    728       7.7909      0.00000
    729       7.7933      0.00000
    730       7.7941      0.00000
    731       7.8126      0.00000
    732       7.8258      0.00000
    733       7.8405      0.00000
    734       7.8415      0.00000
    735       7.8476      0.00000
    736       7.8634      0.00000
    737       7.8729      0.00000
    738       7.9120      0.00000
    739       7.9158      0.00000
    740       8.0183      0.00000
    741       8.0440      0.00000
    742       8.0601      0.00000
    743       8.0774      0.00000
    744       8.0879      0.00000
    745       8.1739      0.00000
    746       8.1777      0.00000
    747       8.1901      0.00000
    748       8.2170      0.00000
    749       8.2193      0.00000
    750       8.2219      0.00000
    751       8.2359      0.00000
    752       8.2428      0.00000
    753       8.2437      0.00000
    754       8.2450      0.00000
    755       8.2464      0.00000
    756       8.2532      0.00000
    757       8.2554      0.00000
    758       8.2695      0.00000
    759       8.2837      0.00000
    760       8.3003      0.00000
    761       8.3570      0.00000
    762       8.4172      0.00000
    763       8.4334      0.00000
    764       8.4571      0.00000
    765       8.4673      0.00000
    766       8.4758      0.00000
    767      21.5630      0.00000
    768      23.3551      0.00000
    769     159.7679      0.00000
    770     187.5335      0.00000
    771     201.9024      0.00000
    772     331.7317      0.00000

 k-point     2 :       0.5000    0.0000    0.0000
  band No.  band energies     occupation 
      1     -13.8571      1.00000
      2     -13.3047      1.00000
      3     -12.1970      1.00000
      4     -11.0881      1.00000
      5     -10.9411      1.00000
      6     -10.7501      1.00000
      7     -10.7306      1.00000
      8     -10.7223      1.00000
      9     -10.7153      1.00000
     10     -10.6490      1.00000
     11     -10.6232      1.00000
     12     -10.6002      1.00000
     13     -10.5782      1.00000
     14     -10.5641      1.00000
     15     -10.5541      1.00000
     16     -10.5357      1.00000
     17     -10.5187      1.00000
     18     -10.5019      1.00000
     19     -10.4693      1.00000
     20     -10.4491      1.00000
     21     -10.4353      1.00000
     22     -10.4131      1.00000
     23     -10.3902      1.00000
     24     -10.3697      1.00000
     25     -10.3624      1.00000
     26     -10.3293      1.00000
     27     -10.3257      1.00000
     28     -10.3213      1.00000
     29     -10.2826      1.00000
     30     -10.2532      1.00000
     31     -10.2452      1.00000
     32     -10.2283      1.00000
     33     -10.2154      1.00000
     34     -10.2039      1.00000
     35     -10.1984      1.00000
     36     -10.1604      1.00000
     37     -10.1521      1.00000
     38     -10.1294      1.00000
     39     -10.1101      1.00000
     40     -10.0761      1.00000
     41     -10.0530      1.00000
     42     -10.0202      1.00000
     43      -9.9181      1.00000
     44      -9.8632      1.00000
     45      -9.8486      1.00000
     46      -9.6656      1.00000
     47      -9.6141      1.00000
     48      -9.5458      1.00000
     49      -9.4365      1.00000
     50      -9.3876      1.00000
     51      -9.3355      1.00000
     52      -9.2689      1.00000
     53      -9.2441      1.00000
     54      -9.2231      1.00000
     55      -9.1786      1.00000
     56      -8.7240      1.00000
     57      -8.2998      1.00000
     58      -7.8648      1.00000
     59      -7.8615      1.00000
     60      -7.8378      1.00000
     61      -7.8371      1.00000
     62      -7.8275      1.00000
     63      -7.8252      1.00000
     64      -7.7930      1.00000
     65      -7.7870      1.00000
     66      -7.7774      1.00000
     67      -7.7717      1.00000
     68      -7.7593      1.00000
     69      -7.7573      1.00000
     70      -7.7471      1.00000
     71      -7.7433      1.00000
     72      -7.7340      1.00000
     73      -7.7329      1.00000
     74      -7.7200      1.00000
     75      -7.7177      1.00000
     76      -7.7158      1.00000
     77      -7.7074      1.00000
     78      -7.7029      1.00000
     79      -7.6855      1.00000
     80      -7.6716      1.00000
     81      -7.6617      1.00000
     82      -7.6556      1.00000
     83      -7.6529      1.00000
     84      -7.6358      1.00000
     85      -7.6287      1.00000
     86      -7.6148      1.00000
     87      -7.6062      1.00000
     88      -7.6023      1.00000
     89      -7.5905      1.00000
     90      -7.5840      1.00000
     91      -7.5728      1.00000
     92      -7.5667      1.00000
     93      -7.5623      1.00000
     94      -7.5591      1.00000
     95      -7.5553      1.00000
     96      -7.5409      1.00000
     97      -7.5320      1.00000
     98      -7.5259      1.00000
     99      -7.5217      1.00000
    100      -7.5175      1.00000
    101      -7.5145      1.00000
    102      -7.5074      1.00000
    103      -7.5025      1.00000
    104      -7.4997      1.00000
    105      -7.4930      1.00000
    106      -7.4830      1.00000
    107      -7.4719      1.00000
    108      -7.4589      1.00000
[...]
 l=   3
     0.0000000     0.0000000     0.0000000     0.0000000     0.0000000     0.0000000     0.0000000
     0.0000000     0.0000000     0.0000000     0.0000000     0.0000000     0.0000000     0.0000000
     0.0000000     0.0000000     0.0000000     0.0000000     0.0000000     0.0000000     0.0000000
     0.0000000     0.0000000     0.0000000     0.0000000     0.0000000     0.0000000     0.0000000
     0.0000000     0.0000000     0.0000000     0.0000000     0.0000000     0.0000000     0.0000000
     0.0000000     0.0000000     0.0000000     0.0000000     0.0000000     0.0000000     0.0000000
     0.0000000     0.0000000     0.0000000     0.0000000     0.0000000     0.0000000     0.0000000

 Ion:   61  E_soc:     -0.1800732
 l=   1
     0.0000000    -0.0299760    -0.0299081
    -0.0299760     0.0000000    -0.0298912
    -0.0299081    -0.0298912     0.0000000
 l=   2
    -0.0000000    -0.0000285     0.0000000    -0.0000299    -0.0000591
    -0.0000285     0.0000000    -0.0000412    -0.0000307    -0.0000149
     0.0000000    -0.0000412     0.0000000    -0.0000456     0.0000000
    -0.0000299    -0.0000307    -0.0000456    -0.0000000    -0.0000114
    -0.0000591    -0.0000149     0.0000000    -0.0000114    -0.0000000
 l=   3
     0.0000000     0.0000000     0.0000000     0.0000000     0.0000000     0.0000000     0.0000000
     0.0000000     0.0000000     0.0000000     0.0000000     0.0000000     0.0000000     0.0000000
     0.0000000     0.0000000     0.0000000     0.0000000     0.0000000     0.0000000     0.0000000
     0.0000000     0.0000000     0.0000000     0.0000000     0.0000000     0.0000000     0.0000000
     0.0000000     0.0000000     0.0000000     0.0000000     0.0000000     0.0000000     0.0000000
     0.0000000     0.0000000     0.0000000     0.0000000     0.0000000     0.0000000     0.0000000
     0.0000000     0.0000000     0.0000000     0.0000000     0.0000000     0.0000000     0.0000000

 Ion:   62  E_soc:     -0.1796393
 l=   1
     0.0000000    -0.0300204    -0.0296424
    -0.0300204     0.0000000    -0.0298999
    -0.0296424    -0.0298999     0.0000000
 l=   2
    -0.0000000    -0.0000295     0.0000000    -0.0000284    -0.0000586
    -0.0000295    -0.0000000    -0.0000449    -0.0000302    -0.0000177
     0.0000000    -0.0000449     0.0000000    -0.0000375     0.0000000
    -0.0000284    -0.0000302    -0.0000375    -0.0000000    -0.0000102
    -0.0000586    -0.0000177     0.0000000    -0.0000102    -0.0000000
 l=   3
     0.0000000     0.0000000     0.0000000     0.0000000     0.0000000     0.0000000     0.0000000
     0.0000000     0.0000000     0.0000000     0.0000000     0.0000000     0.0000000     0.0000000
     0.0000000     0.0000000     0.0000000     0.0000000     0.0000000     0.0000000     0.0000000
     0.0000000     0.0000000     0.0000000     0.0000000     0.0000000     0.0000000     0.0000000
     0.0000000     0.0000000     0.0000000     0.0000000     0.0000000     0.0000000     0.0000000
     0.0000000     0.0000000     0.0000000     0.0000000     0.0000000     0.0000000     0.0000000
     0.0000000     0.0000000     0.0000000     0.0000000     0.0000000     0.0000000     0.0000000

 Ion:   63  E_soc:     -0.1820889
 l=   1
     0.0000000    -0.0304407    -0.0301086
    -0.0304407     0.0000000    -0.0302694
    -0.0301086    -0.0302694     0.0000000
 l=   2
    -0.0000000    -0.0000273     0.0000000    -0.0000259    -0.0000482
    -0.0000273    -0.0000000    -0.0000373    -0.0000250    -0.0000128
     0.0000000    -0.0000373     0.0000000    -0.0000373     0.0000000
    -0.0000259    -0.0000250    -0.0000373    -0.0000000    -0.0000120
    -0.0000482    -0.0000128     0.0000000    -0.0000120    -0.0000000
 l=   3
     0.0000000     0.0000000     0.0000000     0.0000000     0.0000000     0.0000000     0.0000000
     0.0000000     0.0000000     0.0000000     0.0000000     0.0000000     0.0000000     0.0000000
     0.0000000     0.0000000     0.0000000     0.0000000     0.0000000     0.0000000     0.0000000
     0.0000000     0.0000000     0.0000000     0.0000000     0.0000000     0.0000000     0.0000000
     0.0000000     0.0000000     0.0000000     0.0000000     0.0000000     0.0000000     0.0000000
     0.0000000     0.0000000     0.0000000     0.0000000     0.0000000     0.0000000     0.0000000
     0.0000000     0.0000000     0.0000000     0.0000000     0.0000000     0.0000000     0.0000000

 Ion:   64  E_soc:     -0.1797421
 l=   1
     0.0000000    -0.0300727    -0.0295221
    -0.0300727     0.0000000    -0.0300097
    -0.0295221    -0.0300097     0.0000000
 l=   2
    -0.0000000    -0.0000310     0.0000000    -0.0000321    -0.0000578
    -0.0000310    -0.0000000    -0.0000481    -0.0000287    -0.0000167
     0.0000000    -0.0000481     0.0000000    -0.0000427     0.0000000
    -0.0000321    -0.0000287    -0.0000427    -0.0000000    -0.0000095
    -0.0000578    -0.0000167     0.0000000    -0.0000095    -0.0000000
 l=   3
     0.0000000     0.0000000     0.0000000     0.0000000     0.0000000     0.0000000     0.0000000
     0.0000000     0.0000000     0.0000000     0.0000000     0.0000000     0.0000000     0.0000000
     0.0000000     0.0000000     0.0000000     0.0000000     0.0000000     0.0000000     0.0000000
     0.0000000     0.0000000     0.0000000     0.0000000     0.0000000     0.0000000     0.0000000
     0.0000000     0.0000000     0.0000000     0.0000000     0.0000000     0.0000000     0.0000000
     0.0000000     0.0000000     0.0000000     0.0000000     0.0000000     0.0000000     0.0000000
     0.0000000     0.0000000     0.0000000     0.0000000     0.0000000     0.0000000     0.0000000

 Ion:   65  E_soc:     -0.1824766
 l=   1
     0.0000000    -0.0304538    -0.0301604
    -0.0304538     0.0000000    -0.0304047
    -0.0301604    -0.0304047     0.0000000
 l=   2
    -0.0000000    -0.0000274     0.0000000    -0.0000317    -0.0000487
    -0.0000274    -0.0000000    -0.0000313    -0.0000230    -0.0000116
     0.0000000    -0.0000313     0.0000000    -0.0000310     0.0000000
    -0.0000317    -0.0000230    -0.0000310    -0.0000000    -0.0000148
    -0.0000487    -0.0000116     0.0000000    -0.0000148    -0.0000000
 l=   3
     0.0000000     0.0000000     0.0000000     0.0000000     0.0000000     0.0000000     0.0000000
     0.0000000     0.0000000     0.0000000     0.0000000     0.0000000     0.0000000     0.0000000
     0.0000000     0.0000000     0.0000000     0.0000000     0.0000000     0.0000000     0.0000000
     0.0000000     0.0000000     0.0000000     0.0000000     0.0000000     0.0000000     0.0000000
     0.0000000     0.0000000     0.0000000     0.0000000     0.0000000     0.0000000     0.0000000
     0.0000000     0.0000000     0.0000000     0.0000000     0.0000000     0.0000000     0.0000000
     0.0000000     0.0000000     0.0000000     0.0000000     0.0000000     0.0000000     0.0000000



 total charge     

# of ion       s       p       d       tot
------------------------------------------
    1        0.437   0.291   9.447  10.174
    2        0.440   0.304   9.462  10.205
    3        0.440   0.304   9.458  10.202
    4        0.439   0.304   9.468  10.211
    5        0.444   0.304   9.487  10.235
    6        0.441   0.304   9.487  10.232
    7        0.441   0.304   9.487  10.232
    8        0.440   0.301   9.487  10.228
    9        0.441   0.304   9.463  10.208
   10        0.437   0.291   9.469  10.197
   11        0.440   0.304   9.467  10.210
   12        0.442   0.304   9.462  10.207
   13        0.441   0.304   9.486  10.232
   14        0.444   0.305   9.487  10.235
   15        0.440   0.301   9.487  10.228
   16        0.441   0.304   9.487  10.232
   17        0.440   0.304   9.486  10.231
   18        0.443   0.305   9.487  10.235
   19        0.440   0.301   9.487  10.227
   20        0.441   0.304   9.486  10.231
   21        0.443   0.304   9.487  10.234
   22        0.436   0.291   9.487  10.215
   23        0.441   0.304   9.487  10.232
   24        0.442   0.305   9.487  10.234
   25        0.444   0.305   9.487  10.235
   26        0.442   0.305   9.486  10.232
   27        0.441   0.304   9.486  10.232
   28        0.440   0.301   9.487  10.228
   29        0.437   0.291   9.487  10.215
   30        0.443   0.305   9.487  10.234
   31        0.443   0.305   9.487  10.235
   32        0.442   0.304   9.487  10.233
   33        0.720   0.192   9.477  10.389
   34        1.285   2.163   0.023   3.472
   35        1.311   2.148   0.024   3.483
   36        1.293   2.162   0.023   3.477
   37        1.280   2.163   0.023   3.467
   38        1.289   2.167   0.023   3.479
   39        1.317   2.147   0.024   3.488
   40        1.299   2.164   0.022   3.485
   41        1.290   2.167   0.023   3.480
   42        1.312   2.161   0.022   3.494
   43        1.295   2.158   0.023   3.476
   44        1.295   2.160   0.023   3.478
   45        1.295   2.160   0.022   3.478
   46        1.296   2.161   0.023   3.480
   47        1.307   2.163   0.022   3.492
   48        1.308   2.162   0.022   3.493
   49        1.303   2.161   0.023   3.486
   50        1.288   2.166   0.023   3.478
   51        1.289   2.166   0.023   3.479
   52        1.297   2.165   0.022   3.484
   53        1.298   2.165   0.023   3.485
   54        1.316   2.149   0.024   3.489
   55        1.313   2.147   0.024   3.484
   56        1.286   2.164   0.023   3.473
   57        1.279   2.163   0.024   3.465
   58        1.297   2.164   0.023   3.484
   59        1.288   2.167   0.023   3.478
   60        1.297   2.165   0.023   3.484
   61        1.288   2.166   0.023   3.478
   62        1.280   2.163   0.023   3.466
   63        1.310   2.147   0.024   3.482
   64        1.277   2.162   0.023   3.462
   65        1.314   2.148   0.024   3.486
--------------------------------------------------
tot         56.316  78.996 313.595 448.907



 magnetization (x)

# of ion       s       p       d       tot
------------------------------------------
    1       -0.004  -0.003  -0.019  -0.026
    2       -0.006  -0.003  -0.013  -0.022
    3       -0.006  -0.003  -0.019  -0.029
    4       -0.006  -0.003  -0.001  -0.009
    5       -0.004  -0.003   0.003  -0.003
    6       -0.005  -0.003   0.003  -0.004
    7       -0.005  -0.003   0.003  -0.005
    8       -0.003  -0.003   0.003  -0.002
    9       -0.005  -0.003  -0.010  -0.019
   10       -0.004  -0.003  -0.008  -0.016
   11       -0.006  -0.003  -0.009  -0.017
   12       -0.005  -0.003  -0.013  -0.021
   13       -0.003  -0.003   0.003  -0.003
   14       -0.005  -0.003   0.003  -0.004
   15       -0.004  -0.003   0.003  -0.004
   16       -0.003  -0.003   0.003  -0.003
   17       -0.003  -0.003   0.003  -0.003
   18       -0.004  -0.003   0.003  -0.004
   19       -0.004  -0.003   0.003  -0.003
   20       -0.003  -0.003   0.003  -0.003
   21       -0.004  -0.003   0.003  -0.003
   22       -0.003  -0.003   0.004  -0.002
   23       -0.004  -0.003   0.003  -0.003
   24       -0.004  -0.002   0.003  -0.003
   25       -0.003  -0.003   0.003  -0.003
   26       -0.005  -0.003   0.003  -0.004
   27       -0.005  -0.003   0.003  -0.005
   28       -0.003  -0.002   0.003  -0.002
   29       -0.004  -0.003   0.003  -0.004
   30       -0.005  -0.003   0.004  -0.004
   31       -0.004  -0.003   0.004  -0.003
   32       -0.005  -0.003   0.003  -0.004
   33        0.003  -0.003   0.003   0.003
   34       -0.011   0.024  -0.000   0.012
   35       -0.004   0.026   0.000   0.022
   36       -0.007   0.024  -0.000   0.017
   37       -0.014   0.023  -0.000   0.008
   38       -0.009   0.025  -0.000   0.015
   39       -0.001   0.025  -0.000   0.024
   40       -0.004   0.025  -0.000   0.021
   41       -0.008   0.025  -0.000   0.016
   42        0.004   0.024  -0.000   0.028
   43       -0.006   0.023  -0.000   0.017
   44       -0.006   0.025  -0.000   0.019
   45       -0.005   0.024  -0.000   0.018
   46       -0.006   0.025  -0.000   0.019
   47        0.001   0.025  -0.000   0.026
   48        0.002   0.025  -0.000   0.027
   49       -0.002   0.025  -0.000   0.023
   50       -0.009   0.025  -0.000   0.016
   51       -0.010   0.025  -0.000   0.014
   52       -0.005   0.025  -0.000   0.020
   53       -0.003   0.025  -0.000   0.022
   54       -0.001   0.025  -0.000   0.024
   55       -0.003   0.025  -0.000   0.022
   56       -0.011   0.024  -0.000   0.013
   57       -0.015   0.022  -0.000   0.007
   58       -0.004   0.025  -0.000   0.020
   59       -0.010   0.025  -0.000   0.015
   60       -0.004   0.025  -0.000   0.020
   61       -0.010   0.025  -0.000   0.015
   62       -0.014   0.023  -0.000   0.008
   63       -0.004   0.024  -0.000   0.020
   64       -0.015   0.022  -0.000   0.006
   65       -0.002   0.025  -0.000   0.024
--------------------------------------------------
tot         -0.329   0.684  -0.016   0.339



 magnetization (y)

# of ion       s       p       d       tot
------------------------------------------
    1       -0.003  -0.003   0.004  -0.002
    2       -0.005  -0.003   0.001  -0.007
    3       -0.005  -0.003   0.003  -0.005
    4       -0.005  -0.003   0.001  -0.006
    5       -0.003  -0.003   0.003  -0.003
    6       -0.002  -0.003   0.003  -0.002
    7       -0.002  -0.003   0.003  -0.001
    8       -0.003  -0.003   0.003  -0.003
    9       -0.005  -0.003   0.001  -0.008
   10       -0.003  -0.003   0.004  -0.003
   11       -0.006  -0.003   0.002  -0.007
   12       -0.004  -0.003   0.003  -0.005
   13       -0.004  -0.003   0.003  -0.004
   14       -0.003  -0.003   0.003  -0.003
   15       -0.004  -0.003   0.003  -0.003
   16       -0.004  -0.003   0.003  -0.004
   17       -0.005  -0.003   0.003  -0.005
   18       -0.003  -0.003   0.003  -0.003
   19       -0.003  -0.003   0.003  -0.003
   20       -0.004  -0.003   0.003  -0.004
   21       -0.004  -0.003   0.003  -0.004
   22       -0.003  -0.003   0.003  -0.003
   23       -0.005  -0.003   0.003  -0.004
   24       -0.004  -0.003   0.003  -0.003
   25       -0.003  -0.003   0.003  -0.003
   26       -0.005  -0.003   0.003  -0.004
   27       -0.004  -0.003   0.003  -0.004
   28       -0.004  -0.003   0.003  -0.003
   29       -0.004  -0.003   0.004  -0.004
   30       -0.005  -0.003   0.003  -0.004
   31       -0.005  -0.003   0.003  -0.004
   32       -0.005  -0.003   0.003  -0.004
   33        0.004  -0.003   0.003   0.003
   34       -0.012   0.023  -0.000   0.010
   35       -0.004   0.025  -0.000   0.020
   36       -0.006   0.024  -0.000   0.017
   37       -0.014   0.024  -0.000   0.010
   38       -0.009   0.025  -0.000   0.016
   39       -0.001   0.025  -0.000   0.024
   40       -0.004   0.024  -0.000   0.021
   41       -0.008   0.025  -0.000   0.017
   42        0.004   0.025  -0.000   0.028
   43       -0.006   0.024  -0.000   0.017
   44       -0.007   0.023  -0.000   0.017
   45       -0.005   0.024  -0.000   0.019
   46       -0.005   0.025  -0.000   0.019
   47        0.001   0.025  -0.000   0.026
   48        0.002   0.025  -0.000   0.027
   49       -0.002   0.025  -0.000   0.023
   50       -0.010   0.025  -0.000   0.014
   51       -0.008   0.025  -0.000   0.016
   52       -0.004   0.025  -0.000   0.021
   53       -0.004   0.025  -0.000   0.020
   54       -0.000   0.026  -0.000   0.025
   55       -0.003   0.025  -0.000   0.022
   56       -0.011   0.023  -0.000   0.012
   57       -0.015   0.024  -0.000   0.009
   58       -0.004   0.025  -0.000   0.020
   59       -0.009   0.025  -0.000   0.015
   60       -0.004   0.025  -0.000   0.021
   61       -0.010   0.025  -0.000   0.014
   62       -0.014   0.023  -0.000   0.009
   63       -0.004   0.024  -0.000   0.020
   64       -0.016   0.022  -0.000   0.006
   65       -0.002   0.025  -0.000   0.022
--------------------------------------------------
tot         -0.317   0.682   0.092   0.458



 magnetization (z)

# of ion       s       p       d       tot
------------------------------------------
    1       -0.004  -0.003   0.028   0.022
    2       -0.005  -0.003   0.016   0.008
    3       -0.003  -0.003   0.012   0.006
    4       -0.005  -0.003   0.015   0.007
    5       -0.002  -0.003   0.003  -0.001
    6       -0.003  -0.003   0.003  -0.003
    7       -0.003  -0.003   0.003  -0.002
    8       -0.002  -0.003   0.003  -0.002
    9       -0.004  -0.003   0.014   0.006
   10       -0.003  -0.004   0.009   0.002
   11       -0.006  -0.003   0.011   0.003
   12       -0.005  -0.003   0.013   0.005
   13       -0.005  -0.003   0.003  -0.004
   14       -0.003  -0.003   0.003  -0.003
   15       -0.003  -0.003   0.004  -0.003
   16       -0.005  -0.003   0.003  -0.004
   17       -0.004  -0.003   0.003  -0.004
   18       -0.004  -0.003   0.003  -0.003
   19       -0.003  -0.003   0.003  -0.002
   20       -0.005  -0.003   0.003  -0.005
   21       -0.005  -0.003   0.003  -0.004
   22       -0.003  -0.003   0.003  -0.003
   23       -0.004  -0.003   0.003  -0.004
   24       -0.004  -0.003   0.003  -0.003
   25       -0.005  -0.003   0.003  -0.004
   26       -0.004  -0.003   0.003  -0.004
   27       -0.003  -0.003   0.003  -0.003
   28       -0.005  -0.003   0.003  -0.005
   29       -0.003  -0.003   0.004  -0.003
   30       -0.005  -0.003   0.003  -0.004
   31       -0.005  -0.003   0.003  -0.004
   32       -0.004  -0.003   0.003  -0.004
   33        0.003  -0.003   0.003   0.004
   34       -0.011   0.023  -0.000   0.012
   35       -0.004   0.025  -0.000   0.020
   36       -0.007   0.024  -0.000   0.016
   37       -0.014   0.024  -0.000   0.009
   38       -0.009   0.024  -0.000   0.015
   39       -0.000   0.025  -0.000   0.025
   40       -0.003   0.025  -0.000   0.022
   41       -0.008   0.025  -0.000   0.016
   42        0.005   0.024  -0.000   0.029
   43       -0.007   0.024  -0.000   0.017
   44       -0.006   0.024  -0.000   0.018
   45       -0.007   0.024  -0.000   0.017
   46       -0.005   0.025  -0.000   0.019
   47        0.001   0.025  -0.000   0.026
   48        0.002   0.025  -0.000   0.027
   49       -0.002   0.025  -0.000   0.023
   50       -0.010   0.025  -0.000   0.014
   51       -0.008   0.024  -0.000   0.016
   52       -0.004   0.025  -0.000   0.021
   53       -0.004   0.024  -0.000   0.020
   54       -0.002   0.025  -0.000   0.024
   55       -0.003   0.025  -0.000   0.022
   56       -0.011   0.023  -0.000   0.012
   57       -0.015   0.024  -0.000   0.009
   58       -0.004   0.024  -0.000   0.021
   59       -0.010   0.025  -0.000   0.014
   60       -0.005   0.025  -0.000   0.020
   61       -0.009   0.024  -0.000   0.015
   62       -0.015   0.022  -0.000   0.007
   63       -0.004   0.025  -0.000   0.021
   64       -0.016   0.023  -0.000   0.006
   65       -0.002   0.025  -0.000   0.022
--------------------------------------------------
tot         -0.321   0.682   0.191   0.553


 total amount of memory used by VASP MPI-rank0   320043. kBytes
=======================================================================

   base      :      30000. kBytes
   nonl-proj :       5136. kBytes
   fftplans  :      17666. kBytes
   grid      :      21233. kBytes
   one-center:        186. kBytes
   HF        :        129. kBytes
   nonlr-proj:      10316. kBytes
   wavefun   :     235377. kBytes

  
  
 General timing and accounting informations for this job:
 ========================================================
  
                  Total CPU time used (sec):    16246.083
                            User time (sec):    16226.871
                          System time (sec):       19.212
                         Elapsed time (sec):    16262.307
  
                   Maximum memory used (kb):      825448.
                   Average memory used (kb):           0.
  
                          Minor page faults:       192686
                          Major page faults:           16
                 Voluntary context switches:         6000
