 vasp.5.4.4.18Apr17-6-g9f103f2a35 (build Apr  4 2022 10:17:17) complex           
 executed on        HPECrayEX-GNU date 2022.05.02  15:36:29
 running on 4096 total cores
 distrk:  each k-point on 2048 cores,    2 groups
 distr:  one band on NCORES_PER_BAND=  32 cores,   64 groups


--------------------------------------------------------------------------------------------------------


 INCAR:
 POTCAR:    PAW_PBE Cd 06Sep2000                  
 POTCAR:    PAW_PBE Te 08Apr2002                  

 ----------------------------------------------------------------------------- 
|                                                                             |
|           W    W    AA    RRRRR   N    N  II  N    N   GGGG   !!!           |
|           W    W   A  A   R    R  NN   N  II  NN   N  G    G  !!!           |
|           W    W  A    A  R    R  N N  N  II  N N  N  G       !!!           |
|           W WW W  AAAAAA  RRRRR   N  N N  II  N  N N  G  GGG   !            |
|           WW  WW  A    A  R   R   N   NN  II  N   NN  G    G                |
|           W    W  A    A  R    R  N    N  II  N    N   GGGG   !!!           |
|                                                                             |
|      You have enabled k-point parallelism (KPAR>1).                         |
|      This developmental code was originally  written by Paul Kent at ORNL,  |
|      and carefully double checked in Vienna.                                |
|      GW as well as linear response parallelism added by Martijn Marsman     |
|      and Georg Kresse.                                                      |
|      Carefully verify results versus KPAR=1.                                |
|      Report problems to Paul Kent and Vienna.                               |
|                                                                             |
 ----------------------------------------------------------------------------- 

 POTCAR:    PAW_PBE Cd 06Sep2000                  
   VRHFIN =Cd : s2 d10                                                          
   LEXCH  = PE                                                                  
   EATOM  =  1293.1815 eV,   95.0462 Ry                                         
                                                                                
   TITEL  = PAW_PBE Cd 06Sep2000                                                
   LULTRA =        F    use ultrasoft PP ?                                      
   IUNSCR =        1    unscreen: 0-lin 1-nonlin 2-no                           
   RPACOR =    2.000    partial core radius                                     
   POMASS =  112.411; ZVAL   =   12.000    mass and valenz                      
   RCORE  =    2.300    outmost cutoff radius                                   
   RWIGS  =    2.980; RWIGS  =    1.577    wigner-seitz radius (au A)           
   ENMAX  =  274.336; ENMIN  =  205.752 eV                                      
   RCLOC  =    2.054    cutoff for local pot                                    
   LCOR   =        T    correct aug charges                                     
   LPAW   =        T    paw PP                                                  
   EAUG   =  456.106                                                            
   DEXC   =    0.000                                                            
   RMAX   =    2.358    core radius for proj-oper                               
   RAUG   =    1.300    factor for augmentation sphere                          
   RDEP   =    2.450    radius for radial grids                                 
   RDEPT  =    1.955    core radius for aug-charge                              
                                                                                
   Atomic configuration                                                         
   12 entries                                                                   
     n  l   j            E        occ.                                          
     1  0  0.50    -26519.7817   2.0000                                         
     2  0  0.50     -3936.9612   2.0000                                         
     2  1  1.50     -3532.2230   6.0000                                         
     3  0  0.50      -733.7908   2.0000                                         
     3  1  1.50      -601.0792   6.0000                                         
     3  2  2.50      -393.5307  10.0000                                         
     4  0  0.50      -105.8977   2.0000                                         
     4  1  1.50       -66.9488   6.0000                                         
     4  2  2.50       -11.7331  10.0000                                         
     5  0  0.50        -5.6592   2.0000                                         
     5  1  0.50        -1.3606   0.0000                                         
     4  3  2.50        -1.3606   0.0000                                         
   Description                                                                  
     l       E           TYP  RCUT    TYP  RCUT                                 
     2    -11.7331479     23  2.300                                             
     2    -13.0937305     23  2.300                                             
     0     -5.6591502     23  2.300                                             
     0     -1.5561433     23  2.300                                             
     1     -2.7211652     23  2.300                                             
     1      8.3548275     23  2.300                                             
  local pseudopotential read in
  partial core-charges read in
  partial kinetic energy density read in
  atomic valenz-charges read in
  non local Contribution for L=           2  read in
    real space projection operators read in
  non local Contribution for L=           2  read in
    real space projection operators read in
  non local Contribution for L=           0  read in
    real space projection operators read in
  non local Contribution for L=           0  read in
    real space projection operators read in
  non local Contribution for L=           1  read in
    real space projection operators read in
  non local Contribution for L=           1  read in
    real space projection operators read in
    PAW grid and wavefunctions read in

   number of l-projection  operators is LMAX  =           6
   number of lm-projection operators is LMMAX =          18

 POTCAR:    PAW_PBE Te 08Apr2002                  
   VRHFIN =Te: s2p4                                                             
   LEXCH  = PE                                                                  
   EATOM  =   223.2721 eV,   16.4100 Ry                                         
                                                                                
   TITEL  = PAW_PBE Te 08Apr2002                                                
   LULTRA =        F    use ultrasoft PP ?                                      
   IUNSCR =        1    unscreen: 0-lin 1-nonlin 2-no                           
   RPACOR =    2.200    partial core radius                                     
   POMASS =  127.600; ZVAL   =    6.000    mass and valenz                      
   RCORE  =    2.300    outmost cutoff radius                                   
   RWIGS  =    2.900; RWIGS  =    1.535    wigner-seitz radius (au A)           
   ENMAX  =  174.982; ENMIN  =  131.236 eV                                      
   ICORE  =        3    local potential                                         
   LCOR   =        T    correct aug charges                                     
   LPAW   =        T    paw PP                                                  
   EAUG   =  368.792                                                            
   DEXC   =    0.000                                                            
   RMAX   =    2.345    core radius for proj-oper                               
   RAUG   =    1.300    factor for augmentation sphere                          
   RDEP   =    2.397    radius for radial grids                                 
   RDEPT  =    2.174    core radius for aug-charge                              
                                                                                
   Atomic configuration                                                         
   13 entries                                                                   
     n  l   j            E        occ.                                          
     1  0  0.50    -31621.2075   2.0000                                         
     2  0  0.50     -4848.7941   2.0000                                         
     2  1  1.50     -4352.1960   6.0000                                         
     3  0  0.50      -964.9612   2.0000                                         
     3  1  1.50      -803.6179   6.0000                                         
     3  2  2.50      -559.8710  10.0000                                         
     4  0  0.50      -164.3522   2.0000                                         
     4  1  1.50      -114.3756   6.0000                                         
     4  2  2.50       -41.6483  10.0000                                         
     5  0  0.50       -15.1072   2.0000                                         
     5  1  0.50        -5.9526   4.0000                                         
     5  2  1.50        -5.4423   0.0000                                         
     4  3  2.50        -5.4423   0.0000                                         
   Description                                                                  
     l       E           TYP  RCUT    TYP  RCUT                                 
     0    -15.1072389     23  2.300                                             
     0    -16.4678215     23  2.300                                             
     1     -5.9526306     23  2.300                                             
     1     -2.4873968     23  2.300                                             
     2     -5.4423304     23  2.300                                             
     3     -1.3605826     23  2.300                                             
  local pseudopotential read in
  partial core-charges read in
  partial kinetic energy density read in
  atomic valenz-charges read in
  non local Contribution for L=           0  read in
    real space projection operators read in
  non local Contribution for L=           0  read in
    real space projection operators read in
  non local Contribution for L=           1  read in
    real space projection operators read in
  non local Contribution for L=           1  read in
    real space projection operators read in
  non local Contribution for L=           2  read in
    real space projection operators read in
    PAW grid and wavefunctions read in

   number of l-projection  operators is LMAX  =           5
   number of lm-projection operators is LMMAX =          13


 ----------------------------------------------------------------------------- 
|                                                                             |
|  ADVICE TO THIS USER RUNNING 'VASP/VAMP'   (HEAR YOUR MASTER'S VOICE ...):  |
|                                                                             |
|      You have a (more or less) 'large supercell' and for larger cells       |
|      it might be more efficient to use real space projection opertators     |
|      So try LREAL= Auto  in the INCAR   file.                               |
|      Mind:          For very  accurate calculation you might also keep the  |
|      reciprocal projection scheme          (i.e. LREAL=.FALSE.)             |
|                                                                             |
 ----------------------------------------------------------------------------- 

  PAW_PBE Cd 06Sep2000                  :
 energy of atom  1       EATOM=-1293.1815
 kinetic energy error for atom=    0.0084 (will be added to EATOM!!)
  PAW_PBE Te 08Apr2002                  :
 energy of atom  2       EATOM= -223.2721
 kinetic energy error for atom=    0.0008 (will be added to EATOM!!)


 POSCAR: Cd33 Te32                               
  positions in direct lattice
  No initial velocities read in
 exchange correlation table for  LEXCH =        8
   RHO(1)=    0.500       N(1)  =     2000
   RHO(2)=  100.500       N(2)  =     4000



--------------------------------------------------------------------------------------------------------


 ion  position               nearest neighbor table
   1  0.004  0.996  0.004-  44 2.79  35 2.93  54 2.93  65 2.93  33 2.94
   2  0.001  0.999  0.497-  55 2.82  34 2.82  64 2.82  45 2.84
   3  0.001  0.503  0.001-  63 2.82  56 2.82  37 2.82  42 2.84
   4  1.000  0.501  0.499-  57 2.82  62 2.82  36 2.82  43 2.84
   5  0.497  0.999  0.001-  39 2.82  50 2.82  61 2.82  48 2.84
   6  0.499  0.000  0.499-  38 2.82  51 2.82  60 2.82  49 2.84
   7  0.499  0.501  1.000-  41 2.82  59 2.82  52 2.82  46 2.84
   8  0.501  0.499  0.501-  47 2.82  40 2.83  53 2.83  58 2.83
   9  0.001  0.251  0.253-  54 2.82  34 2.82  62 2.82  42 2.84
  10  0.004  0.254  0.746-  43 2.79  35 2.93  55 2.93  63 2.93  33 2.94
  11  1.000  0.749  0.251-  56 2.82  64 2.82  36 2.82  44 2.84
  12  0.001  0.747  0.749-  65 2.82  57 2.82  37 2.82  45 2.84
  13  0.499  0.250  0.251-  38 2.82  50 2.82  58 2.82  46 2.84
  14  0.497  0.251  0.749-  39 2.82  51 2.82  59 2.82  47 2.84
  15  0.501  0.751  0.249-  48 2.82  40 2.83  52 2.83  60 2.83
  16  0.499  0.749  0.750-  41 2.82  61 2.82  53 2.82  49 2.84
  17  0.251  0.000  0.251-  34 2.82  50 2.82  60 2.82  44 2.84
  18  0.253  0.999  0.749-  35 2.82  51 2.82  61 2.82  45 2.84
  19  0.249  0.499  0.249-  42 2.82  36 2.83  52 2.83  58 2.83
  20  0.251  0.501  0.750-  37 2.82  59 2.82  53 2.82  43 2.84
  21  0.749  0.999  0.253-  54 2.82  38 2.82  64 2.82  48 2.84
  22  0.746  0.996  0.746-  49 2.79  39 2.93  55 2.93  65 2.93  33 2.94
  23  0.750  0.501  0.251-  56 2.82  62 2.82  40 2.82  46 2.84
  24  0.749  0.503  0.749-  63 2.82  57 2.82  41 2.82  47 2.84
  25  0.253  0.251  0.001-  35 2.82  50 2.82  59 2.82  42 2.84
  26  0.251  0.250  0.499-  34 2.82  51 2.82  58 2.82  43 2.84
  27  0.251  0.749  1.000-  37 2.82  61 2.82  52 2.82  44 2.84
  28  0.249  0.751  0.501-  45 2.82  36 2.83  53 2.83  60 2.83
  29  0.746  0.254  0.004-  46 2.79  39 2.93  54 2.93  63 2.93  33 2.94
  30  0.749  0.251  0.497-  55 2.82  38 2.82  62 2.82  47 2.84
  31  0.749  0.747  0.001-  65 2.82  56 2.82  41 2.82  48 2.84
  32  0.750  0.749  0.499-  57 2.82  64 2.82  40 2.82  49 2.84
  33  0.875  0.125  0.875-   1 2.94  10 2.94  22 2.94  29 2.94  35 3.37  39 3.37  54 3.37  55 3.37
                            63 3.37  65 3.37
  34  0.127  0.125  0.375-  17 2.82  26 2.82   2 2.82   9 2.82
  35  0.133  0.125  0.875-  18 2.82  25 2.82  10 2.93   1 2.93  33 3.37
  36  0.126  0.625  0.375-   4 2.82  11 2.82  19 2.83  28 2.83
  37  0.127  0.625  0.875-  20 2.82  27 2.82   3 2.82  12 2.82
  38  0.623  0.125  0.375-  13 2.82   6 2.82  21 2.82  30 2.82
  39  0.617  0.125  0.875-  14 2.82   5 2.82  22 2.93  29 2.93  33 3.37
  40  0.624  0.625  0.375-  23 2.82  32 2.82   8 2.83  15 2.83
  41  0.623  0.625  0.875-   7 2.82  16 2.82  31 2.82  24 2.82
  42  0.125  0.375  0.125-  19 2.82   9 2.84  25 2.84   3 2.84
  43  0.127  0.377  0.623-  10 2.79   4 2.84  26 2.84  20 2.84
  44  0.127  0.873  0.127-   1 2.79  11 2.84  17 2.84  27 2.84
  45  0.125  0.875  0.625-  28 2.82  18 2.84   2 2.84  12 2.84
  46  0.623  0.377  0.127-  29 2.79  13 2.84  23 2.84   7 2.84
  47  0.625  0.375  0.625-   8 2.82  14 2.84  24 2.84  30 2.84
  48  0.625  0.875  0.125-  15 2.82  21 2.84   5 2.84  31 2.84
  49  0.623  0.873  0.623-  22 2.79  32 2.84   6 2.84  16 2.84
  50  0.375  0.125  0.127-  17 2.82  13 2.82   5 2.82  25 2.82
  51  0.375  0.125  0.623-   6 2.82  26 2.82  18 2.82  14 2.82
  52  0.375  0.625  0.126-   7 2.82  27 2.82  19 2.83  15 2.83
  53  0.375  0.625  0.624-  16 2.82  20 2.82   8 2.83  28 2.83
  54  0.875  0.125  0.133-   9 2.82  21 2.82   1 2.93  29 2.93  33 3.37
  55  0.875  0.125  0.617-  30 2.82   2 2.82  22 2.93  10 2.93  33 3.37
  56  0.875  0.625  0.127-  11 2.82  23 2.82   3 2.82  31 2.82
  57  0.875  0.625  0.623-   4 2.82  32 2.82  12 2.82  24 2.82
  58  0.375  0.376  0.375-  26 2.82  13 2.82  19 2.83   8 2.83
  59  0.375  0.377  0.875-   7 2.82  20 2.82  14 2.82  25 2.82
  60  0.375  0.874  0.375-   6 2.82  17 2.82  15 2.83  28 2.83
  61  0.375  0.873  0.875-  16 2.82  27 2.82   5 2.82  18 2.82
  62  0.875  0.377  0.375-   4 2.82  23 2.82   9 2.82  30 2.82
  63  0.875  0.383  0.875-  24 2.82   3 2.82  10 2.93  29 2.93  33 3.37
  64  0.875  0.873  0.375-  11 2.82  32 2.82   2 2.82  21 2.82
  65  0.875  0.867  0.875-  12 2.82  31 2.82   1 2.93  22 2.93  33 3.37


IMPORTANT INFORMATION: All symmetrisations will be switched off!
NOSYMM: (Re-)initialisation of all symmetry stuff for point group C_1.



 KPOINTS: Automatically generated mesh            
  k-points in reciprocal lattice
Space group operators:
 irot       det(A)        alpha          n_x          n_y          n_z        tau_x        tau_y        tau_z
    1     1.000000     0.000000     1.000000     0.000000     0.000000     0.000000     0.000000     0.000000

 ----------------------------------------------------------------------------- 
|                                                                             |
|           W    W    AA    RRRRR   N    N  II  N    N   GGGG   !!!           |
|           W    W   A  A   R    R  NN   N  II  NN   N  G    G  !!!           |
|           W    W  A    A  R    R  N N  N  II  N N  N  G       !!!           |
|           W WW W  AAAAAA  RRRRR   N  N N  II  N  N N  G  GGG   !            |
|           WW  WW  A    A  R   R   N   NN  II  N   NN  G    G                |
|           W    W  A    A  R    R  N    N  II  N    N   GGGG   !!!           |
|                                                                             |
|      Your generating k-point grid is not commensurate to the symmetry       |
|      of the lattice.  This can cause   slow convergence with respect        |
|      to k-points for HF type calculations                                   |
|      suggested SOLUTIONS:                                                   |
|       ) if not already the case, use automatic k-point generation           |
|       ) shift your grid to Gamma (G) (e.g. required for hex or fcc lattice) |
|                                                                             |
 ----------------------------------------------------------------------------- 

 
 Subroutine IBZKPT_HF returns following result:
 ==============================================
 
 Found      8 k-points in 1st BZ
 the following      8 k-points will be used (e.g. in the exchange kernel)
 Following reciprocal coordinates:   # in IRBZ
  0.000000  0.000000  0.000000    0.12500000   1 t-inv F
  0.500000  0.000000  0.000000    0.12500000   2 t-inv F
  0.000000  0.500000  0.000000    0.12500000   3 t-inv F
  0.500000  0.500000  0.000000    0.12500000   4 t-inv F
  0.000000  0.000000  0.500000    0.12500000   5 t-inv F
  0.500000  0.000000  0.500000    0.12500000   6 t-inv F
  0.000000  0.500000  0.500000    0.12500000   7 t-inv F
  0.500000  0.500000  0.500000    0.12500000   8 t-inv F


--------------------------------------------------------------------------------------------------------




 Dimension of arrays:
   k-points           NKPTS =      8   k-points in BZ     NKDIM =      8   number of bands    NBANDS=    832
   number of dos      NEDOS =   2000   number of ions     NIONS =     65
   non local maximal  LDIM  =      6   non local SUM 2l+1 LMDIM =     18
   total plane-waves  NPLWV = 884736
   max r-space proj   IRMAX =      1   max aug-charges    IRDMAX= 183854
   dimension x,y,z NGX =    96 NGY =   96 NGZ =   96
   dimension x,y,z NGXF=   192 NGYF=  192 NGZF=  192
   support grid    NGXF=   384 NGYF=  384 NGZF=  384
   ions per type =              33  32
   NGX,Y,Z   is equivalent  to a cutoff of  12.20, 12.20, 12.20 a.u.
   NGXF,Y,Z  is equivalent  to a cutoff of  24.39, 24.39, 24.39 a.u.

 SYSTEM =  unknown system                          
 POSCAR =  Cd33 Te32                               

 Startparameter for this run:
   NWRITE =      2    write-flag & timer
   PREC   = accura    normal or accurate (medium, high low for compatibility)
   ISTART =      0    job   : 0-new  1-cont  2-samecut
   ICHARG =      1    charge: 1-file 2-atom 10-const
   ISPIN  =      1    spin polarized calculation?
   LNONCOLLINEAR =      T non collinear calculations
   LSORBIT =      T    spin-orbit coupling
   INIWAV =      1    electr: 0-lowe 1-rand  2-diag
   LASPH  =      T    aspherical Exc in radial PAW
   METAGGA=      F    non-selfconsistent MetaGGA calc.

 Electronic Relaxation 1
   ENCUT  =  450.0 eV  33.07 Ry    5.75 a.u.  22.64 22.64 22.64*2*pi/ulx,y,z
   ENINI  =  450.0     initial cutoff
   ENAUG  =  456.1 eV  augmentation charge cutoff
   NELM   =      6;   NELMIN=  2; NELMDL= -5     # of ELM steps 
   EDIFF  = 0.1E-05   stopping-criterion for ELM
   LREAL  =      F    real-space projection
   NLSPLINE    = F    spline interpolate recip. space projectors
   LCOMPAT=      F    compatible to vasp.4.4
   GGA_COMPAT  = T    GGA compatible to vasp.4.4-vasp.4.6
   LMAXPAW     = -100 max onsite density
   LMAXMIX     =    2 max onsite mixed and CHGCAR
   VOSKOWN=      0    Vosko Wilk Nusair interpolation
   ROPT   =    0.00000   0.00000
 Ionic relaxation
   EDIFFG = -.1E-01   stopping-criterion for IOM
   NSW    =      0    number of steps for IOM
   NBLOCK =      1;   KBLOCK =      1    inner block; outer block 
   IBRION =     -1    ionic relax: 0-MD 1-quasi-New 2-CG
   NFREE  =      0    steps in history (QN), initial steepest desc. (CG)
   ISIF   =      2    stress and relaxation
   IWAVPR =     10    prediction:  0-non 1-charg 2-wave 3-comb
   ISYM   =      0    0-nonsym 1-usesym 2-fastsym
   LCORR  =      T    Harris-Foulkes like correction to forces

   POTIM  = 0.5000    time-step for ionic-motion
   TEIN   =    0.0    initial temperature
   TEBEG  =    0.0;   TEEND  =   0.0 temperature during run
   SMASS  =  -3.00    Nose mass-parameter (am)
   estimated Nose-frequenzy (Omega)   =  0.10E-29 period in steps =****** mass=  -0.391E-26a.u.
   SCALEE = 1.0000    scale energy and forces
   NPACO  =    256;   APACO  = 16.0  distance and # of slots for P.C.
   PSTRESS=    0.0 pullay stress

  Mass of Ions in am
   POMASS = 112.41127.60
  Ionic Valenz
   ZVAL   =  12.00  6.00
  Atomic Wigner-Seitz radii
   RWIGS  =  -1.00 -1.00
  virtual crystal weights 
   VCA    =   1.00  1.00
   NELECT =     588.0000    total number of electrons
   NUPDOWN=      -1.0000    fix difference up-down

 DOS related values:
   EMIN   =  10.00;   EMAX   =-10.00  energy-range for DOS
   EFERMI =   0.00
   ISMEAR =     0;   SIGMA  =   0.05  broadening in eV -4-tet -1-fermi 0-gaus

 Electronic relaxation 2 (details)
   IALGO  =     58    algorithm
   LDIAG  =      T    sub-space diagonalisation (order eigenvalues)
   LSUBROT=      F    optimize rotation matrix (better conditioning)
   TURBO    =      0    0=normal 1=particle mesh
   IRESTART =      0    0=no restart 2=restart with 2 vectors
   NREBOOT  =      0    no. of reboots
   NMIN     =      0    reboot dimension
   EREF     =   0.00    reference energy to select bands
   IMIX   =      4    mixing-type and parameters
     AMIX     =   0.40;   BMIX     =  1.00
     AMIX_MAG =   1.60;   BMIX_MAG =  1.00
     AMIN     =   0.10
     WC   =   100.;   INIMIX=   1;  MIXPRE=   1;  MAXMIX= -45

 Intra band minimization:
   WEIMIN = 0.0000     energy-eigenvalue tresh-hold
   EBREAK =  0.30E-09  absolut break condition
   DEPER  =   0.30     relativ break condition  

   TIME   =   0.40     timestep for ELM

  volume/ion in A,a.u.               =      34.48       232.69
  Fermi-wavevector in a.u.,A,eV,Ry     =   1.048017  1.980464 14.943809  1.098339
  Thomas-Fermi vector in A             =   2.182921

 Write flags
   LWAVE        =      T    write WAVECAR
   LDOWNSAMPLE  =      F    k-point downsampling of WAVECAR
   LCHARG       =      T    write CHGCAR
   LVTOT        =      F    write LOCPOT, total local potential
   LVHAR        =      T    write LOCPOT, Hartree potential only
   LELF         =      F    write electronic localiz. function (ELF)
   LORBIT       =     11    0 simple, 1 ext, 2 COOP (PROOUT), +10 PAW based schemes


 Dipole corrections
   LMONO  =      F    monopole corrections only (constant potential shift)
   LDIPOL =      F    correct potential (dipole corrections)
   IDIPOL =      0    1-x, 2-y, 3-z, 4-all directions 
   EPSILON=  1.0000000 bulk dielectric constant

 Exchange correlation treatment:
   GGA     =    --    GGA type
   LEXCH   =     8    internal setting for exchange type
   VOSKOWN=      0    Vosko Wilk Nusair interpolation
   EXXOEP  =     0    0=HF, 1=EXX-LHF (local Hartree Fock) 2=EXX OEP
   LHFCALC =     T    Hartree Fock is set to
   LSYMGRAD=     F    symmetrize gradient (conserves proper symmetry)
   PRECFOCK=fast      Normal, Fast or Accurate (Low or Medium for compatibility)
   LRHFCALC=     F    long range Hartree Fock
   LRSCOR  =     F    long range correlation only (use DFT for short range part)
   LTHOMAS =     F    Thomas Fermi screening in HF
   LMODELHF=     F    short range full HF, long range fraction AEXX
   ENCUT4O =  -1.0   cutoff for four orbital integrals eV
   LMAXFOCK=     4    L truncation for augmentation on plane wave grid
   LMAXFOCKAE=  -1    L truncation for all-electron charge restoration on plane wave grid
   NMAXFOCKAE=   1    number of basis functions for all-electron charge restoration
   LFOCKAEDFT=     F  apply the AE augmentation even for DFT
   NKREDX  =     1    reduce k-point grid by
   NKREDY  =     1    reduce k-point grid by
   NKREDZ  =     1    reduce k-point grid by
   SHIFTRED=     F    shift reduced grid of Gamma
   HFKIDENT=     F    idential grid for each k-point
   ODDONLY =     F    use only odd q-grid points
   EVENONLY=     F    use only even q-grid points
   HFALPHA =   -1.0000 decay constant for conv. correction
   MCALPHA =    0.0000 extent of test-charge in conv. correction in multipole expansion
   AEXX    =    0.2500 exact exchange contribution
   HFSCREEN=    0.2000 screening length (either q_TF or 0.3 A-1)
   HFSCREENC=   0.2000 screening length for correlation (either q_TF or 0.3 A-1)
   HFRCUT  =    0.0000 spherical cutoff for potential kernel
   ALDAX   =    0.7500 LDA exchange part
   AGGAX   =    0.7500 GGA exchange part
   ALDAC   =    1.0000 LDA correlation
   AGGAC   =    1.0000 GGA correlation
   ENCUTFOCK=  -1.0 apply spherical cutoff to Coloumb kernel
   NBANDSGWLOW=     1    first orbital included in HF term
   NBLOCK_FOCK=    64    blocking factor in FOCK_ACC
 Linear response parameters
   LEPSILON=     F    determine dielectric tensor
   LRPA    =     F    only Hartree local field effects (RPA)
   LNABLA  =     F    use nabla operator in PAW spheres
   LVEL    =     F    velocity operator in full k-point grid
   LINTERFAST=   F  fast interpolation
   KINTER  =     0    interpolate to denser k-point grid
   CSHIFT  =0.1000    complex shift for real part using Kramers Kronig
   OMEGAMAX=  -1.0    maximum frequency
   DEG_THRESHOLD= 0.2000000E-02 threshold for treating states as degnerate
   RTIME   =   -0.100 relaxation time in fs
  (WPLASMAI=    0.000 imaginary part of plasma frequency in eV, 0.658/RTIME)
   DFIELD  = 0.0000000 0.0000000 0.0000000 field for delta impulse in time

 Orbital magnetization related:
   ORBITALMAG=     F  switch on orbital magnetization
   LCHIMAG   =     F  perturbation theory with respect to B field
   DQ        =  0.001000  dq finite difference perturbation B field
   LLRAUG    =     F  two centre corrections for induced B field



--------------------------------------------------------------------------------------------------------


 Static calculation
 charge density and potential will be updated during run
 non collinear spin polarized calculation
 Conjugate gradient for all bands (Freysoldt, et al. PRB 79, 241103 (2009))
 preconditioned conjugated gradient                                        
 perform sub-space diagonalisation
    before iterative eigenvector-optimisation
 modified Broyden-mixing scheme, WC =      100.0
 initial mixing is a Kerker type mixing with AMIX =  0.4000 and BMIX =      1.0000
 Hartree-type preconditioning will be used
 using additional bands          538
 reciprocal scheme for non local part
 use partial core corrections
 no Harris-corrections to forces 
 use gradient corrections 
 use of overlap-Matrix (Vanderbilt PP)
 Gauss-broadening in eV      SIGMA  =   0.05


--------------------------------------------------------------------------------------------------------


  energy-cutoff  :      450.00
  volume of cell :     2241.29
      direct lattice vectors                 reciprocal lattice vectors
    13.086768000  0.000000000  0.000000000     0.076413061  0.000000000  0.000000000
     0.000000000 13.086768000  0.000000000     0.000000000  0.076413061  0.000000000
     0.000000000  0.000000000 13.086768000     0.000000000  0.000000000  0.076413061

  length of vectors
    13.086768000 13.086768000 13.086768000     0.076413061  0.076413061  0.076413061



 k-points in units of 2pi/SCALE and weight: Automatically generated mesh            
   0.00000000  0.00000000  0.00000000       0.125
   0.03820653  0.00000000  0.00000000       0.125
   0.00000000  0.03820653  0.00000000       0.125
   0.03820653  0.03820653  0.00000000       0.125
   0.00000000  0.00000000  0.03820653       0.125
   0.03820653  0.00000000  0.03820653       0.125
   0.00000000  0.03820653  0.03820653       0.125
   0.03820653  0.03820653  0.03820653       0.125

 k-points in reciprocal lattice and weights: Automatically generated mesh            
   0.00000000  0.00000000  0.00000000       0.125
   0.50000000  0.00000000  0.00000000       0.125
   0.00000000  0.50000000  0.00000000       0.125
   0.50000000  0.50000000  0.00000000       0.125
   0.00000000  0.00000000  0.50000000       0.125
   0.50000000  0.00000000  0.50000000       0.125
   0.00000000  0.50000000  0.50000000       0.125
   0.50000000  0.50000000  0.50000000       0.125

 position of ions in fractional coordinates (direct lattice) 
   0.00448500  0.99551500  0.00448500
   0.00124700  0.99875300  0.49695900
   0.00124700  0.50304100  0.00124700
   0.99962500  0.50121800  0.49878200
   0.49695900  0.99875300  0.00124700
   0.49878100  0.00037500  0.49878100
   0.49878100  0.50121900  0.99962500
   0.50052800  0.49947200  0.50052800
   0.00124700  0.25124700  0.25304000
   0.00448600  0.25448500  0.74551500
   0.99962500  0.74878200  0.25121800
   0.00124700  0.74695900  0.74875300
   0.49878200  0.24962500  0.25121900
   0.49696000  0.25124700  0.74875300
   0.50052800  0.75052800  0.24947200
   0.49878100  0.74878100  0.75037500
   0.25121900  0.00037500  0.25121900
   0.25304000  0.99875300  0.74875300
   0.24947200  0.49947200  0.24947200
   0.25121900  0.50121900  0.75037500
   0.74875300  0.99875300  0.25304000
   0.74551400  0.99551500  0.74551500
   0.75037500  0.50121900  0.25121900
   0.74875300  0.50304000  0.74875300
   0.25304000  0.25124700  0.00124700
   0.25121900  0.24962500  0.49878100
   0.25121900  0.74878100  0.99962500
   0.24947200  0.75052800  0.50052800
   0.74551400  0.25448500  0.00448500
   0.74875300  0.25124700  0.49696000
   0.74875300  0.74695900  0.00124700
   0.75037500  0.74878200  0.49878200
   0.87500000  0.12500000  0.87500000
   0.12665600  0.12500000  0.37500000
   0.13277900  0.12500000  0.87500000
   0.12589200  0.62500000  0.37500000
   0.12665600  0.62500000  0.87500000
   0.62334400  0.12500000  0.37500000
   0.61722100  0.12500000  0.87500000
   0.62410800  0.62500000  0.37500000
   0.62334400  0.62500000  0.87500000
   0.12484800  0.37484800  0.12484800
   0.12748800  0.37748800  0.62251200
   0.12748800  0.87251200  0.12748800
   0.12484800  0.87515200  0.62515200
   0.62251200  0.37748800  0.12748800
   0.62515200  0.37484800  0.62515200
   0.62515200  0.87515200  0.12484800
   0.62251200  0.87251200  0.62251200
   0.37500000  0.12500000  0.12665600
   0.37500000  0.12500000  0.62334400
   0.37500000  0.62500000  0.12589200
   0.37500000  0.62500000  0.62410800
   0.87500000  0.12500000  0.13277900
   0.87500000  0.12500000  0.61722100
   0.87500000  0.62500000  0.12665600
   0.87500000  0.62500000  0.62334400
   0.37500000  0.37589200  0.37500000
   0.37500000  0.37665600  0.87500000
   0.37500000  0.87410800  0.37500000
   0.37500000  0.87334400  0.87500000
   0.87500000  0.37665600  0.37500000
   0.87500000  0.38277900  0.87500000
   0.87500000  0.87334400  0.37500000
   0.87500000  0.86722100  0.87500000

 position of ions in cartesian coordinates  (Angst):
   0.05869415 13.02807385  0.05869415
   0.01631920 13.07044880  6.50358714
   0.01631920  6.58318086  0.01631920
  13.08186046  6.55932368  6.52744432
   6.50358714 13.07044880  0.01631920
   6.52743123  0.00490754  6.52743123
   6.52743123  6.55933677 13.08186046
   6.55029381  6.53647419  6.55029381
   0.01631920  3.28801120  3.31147577
   0.05870724  3.33038615  9.75638185
  13.08186046  9.79913632  3.28763168
   0.01631920  9.77527914  9.79875680
   6.52744432  3.26678446  3.28764477
   6.50360023  3.28801120  9.79875680
   6.55029381  9.82198581  3.26478219
   6.52743123  9.79912323  9.81998354
   3.28764477  0.00490754  3.28764477
   3.31147577 13.07044880  9.79875680
   3.26478219  6.53647419  3.26478219
   3.28764477  6.55933677  9.81998354
   9.79875680 13.07044880  3.31147577
   9.75636876 13.02807385  9.75638185
   9.81998354  6.55933677  3.28764477
   9.79875680  6.58316777  9.79875680
   3.31147577  3.28801120  0.01631920
   3.28764477  3.26678446  6.52743123
   3.28764477  9.79912323 13.08186046
   3.26478219  9.82198581  6.55029381
   9.75636876  3.33038615  0.05869415
   9.79875680  3.28801120  6.50360023
   9.79875680  9.77527914  0.01631920
   9.81998354  9.79913632  6.52744432
  11.45092200  1.63584600 11.45092200
   1.65751769  1.63584600  4.90753800
   1.73764797  1.63584600 11.45092200
   1.64751940  8.17923000  4.90753800
   1.65751769  8.17923000 11.45092200
   8.15755831  1.63584600  4.90753800
   8.07742803  1.63584600 11.45092200
   8.16755660  8.17923000  4.90753800
   8.15755831  8.17923000 11.45092200
   1.63385681  4.90554881  1.63385681
   1.66840588  4.94009788  8.14667012
   1.66840588 11.41836212  1.66840588
   1.63385681 11.45291119  8.18121919
   8.14667012  4.94009788  1.66840588
   8.18121919  4.90554881  8.18121919
   8.18121919 11.45291119  1.63385681
   8.14667012 11.41836212  8.14667012
   4.90753800  1.63584600  1.65751769
   4.90753800  1.63584600  8.15755831
   4.90753800  8.17923000  1.64751940
   4.90753800  8.17923000  8.16755660
  11.45092200  1.63584600  1.73764797
  11.45092200  1.63584600  8.07742803
  11.45092200  8.17923000  1.65751769
  11.45092200  8.17923000  8.15755831
   4.90753800  4.91921140  4.90753800
   4.90753800  4.92920969 11.45092200
   4.90753800 11.43924860  4.90753800
   4.90753800 11.42925031 11.45092200
  11.45092200  4.92920969  4.90753800
  11.45092200  5.00933997 11.45092200
  11.45092200 11.42925031  4.90753800
  11.45092200 11.34912003 11.45092200

 Euler angles ALPHA=     0.0000000  BETA=     0.0000000

 transformation matrix from SAXIS to cartesian coordinates
 ---------------------------------------------------------
     1.0000000 m_x    -0.0000000 m_y     0.0000000 m_z
     0.0000000 m_x     1.0000000 m_y     0.0000000 m_z
    -0.0000000 m_x     0.0000000 m_y     1.0000000 m_z

 transformation matrix from cartesian coordinates to SAXIS
 ---------------------------------------------------------
     1.0000000 m_x     0.0000000 m_y    -0.0000000 m_z
    -0.0000000 m_x     1.0000000 m_y     0.0000000 m_z
     0.0000000 m_x     0.0000000 m_y     1.0000000 m_z




--------------------------------------------------------------------------------------------------------


 k-point  1 :   0.0000 0.0000 0.0000  plane waves:   97002
 k-point  2 :   0.5000 0.0000 0.0000  plane waves:   97356
 k-point  3 :   0.0000 0.5000 0.0000  plane waves:   97356
 k-point  4 :   0.5000 0.5000 0.0000  plane waves:   96960
 k-point  5 :   0.0000 0.0000 0.5000  plane waves:   97356
 k-point  6 :   0.5000 0.0000 0.5000  plane waves:   96960
 k-point  7 :   0.0000 0.5000 0.5000  plane waves:   96960
 k-point  8 :   0.5000 0.5000 0.5000  plane waves:   96832

 maximum and minimum number of plane-waves per node :      3116     2976

 maximum number of plane-waves:     97356
 maximum index in each direction: 
   IXMAX=   22   IYMAX=   22   IZMAX=   22
   IXMIN=  -23   IYMIN=  -23   IZMIN=  -23


 parallel 3D FFT for wavefunctions:
    minimum data exchange during FFTs selected (reduces bandwidth)
 parallel 3D FFT for charge:
    minimum data exchange during FFTs selected (reduces bandwidth)


 FFT grid for exact exchange (Hartree Fock) 
  NGX = 48; NGY = 48; NGZ = 48


 Radii for the augmentation spheres in the non-local exchange
 for species   1 augmentation radius   1.444 (default was   1.070)
       energy cutoff for augmentation   1800.0
 for species   2 augmentation radius   1.606 (default was   1.190)
       energy cutoff for augmentation   1800.0

 real space projection operators:
  total allocation   :       9375.20 KBytes
  max/ min on nodes  :        432.62        141.21

 Maximum index for augmentation-charges in exchange           97
  SETUP_FOCK is finished

 total amount of memory used by VASP MPI-rank0    71825. kBytes
=======================================================================

   base      :      30000. kBytes
   nonl-proj :       5136. kBytes
   fftplans  :       6592. kBytes
   grid      :      12386. kBytes
   one-center:        186. kBytes
   HF        :        129. kBytes
   nonlr-proj:       1424. kBytes
   wavefun   :      15972. kBytes

     INWAV:  cpu time    0.0001: real time    0.0003
 Broyden mixing: mesh for mixing (old mesh)
   NGX = 45   NGY = 45   NGZ = 45
  (NGX  =192   NGY  =192   NGZ  =192)
  gives a total of  91125 points

 initial charge density was supplied:
 charge density of overlapping atoms calculated
 number of electron     588.0000000 magnetization      65.0000000     65.0000000     65.0000000
 keeping initial charge density in first step


--------------------------------------------------------------------------------------------------------


 Maximum index for augmentation-charges         3093 (set IRDMAX)


--------------------------------------------------------------------------------------------------------


 First call to EWALD:  gamma=   0.135
 Maximum number of real-space cells 3x 3x 3
 Maximum number of reciprocal cells 3x 3x 3

    FEWALD:  cpu time    0.0055: real time    0.0056


--------------------------------------- Iteration      1(   1)  ---------------------------------------


    POTLOK:  cpu time    0.7420: real time    0.7456
    SETDIJ:  cpu time    1.8300: real time    1.8311
    TRIAL :  cpu time    6.6734: real time    6.7174
    CORREC:  cpu time    0.0023: real time    0.0023
    --------------------------------------------
      LOOP:  cpu time    9.3449: real time    9.3938

 eigenvalue-minimisations  : 13312
 total energy-change (2. order) : 0.4515706E+04  (-0.2571820E+05)
 number of electron     588.0000000 magnetization      65.0000000     65.0000000     65.0000000
 augmentation part      588.0000000 magnetization      65.0000000     65.0000000     65.0000000

 Free energy of the ion-electron system (eV)
  ---------------------------------------------------
  alpha Z        PSCENC =      1642.45118531
  Ewald energy   TEWEN  =    -33940.17512420
  -Hartree energ DENC   =    -17077.89199325
  -exchange      EXHF   =         0.00000000
  -V(xc)+E(xc)   XCENC  =      -617.56595420
  PAW double counting   =     46020.13618675   -43994.38451620
  entropy T*S    EENTRO =        -0.03377039
  eigenvalues    EBANDS =      2733.74447256
  atomic energy  EATOM  =     49749.42546356
  ---------------------------------------------------
  free energy    TOTEN  =      4515.70594995 eV

  energy without entropy =     4515.73972034  energy(sigma->0) =     4515.72283514
  exchange ACFDT corr.  =         0.00000000  see jH, gK, PRB 81, 115126


--------------------------------------------------------------------------------------------------------




--------------------------------------- Iteration      1(   2)  ---------------------------------------


    TRIAL :  cpu time    7.4301: real time    7.4456
    CORREC:  cpu time    0.0014: real time    0.0014
    --------------------------------------------
      LOOP:  cpu time    7.4421: real time    7.4799

 eigenvalue-minimisations  : 14336
 total energy-change (2. order) :-0.3364875E+04  (-0.3214034E+04)
 number of electron     588.0000000 magnetization      65.0000000     65.0000000     65.0000000
 augmentation part      588.0000000 magnetization      65.0000000     65.0000000     65.0000000

 Free energy of the ion-electron system (eV)
  ---------------------------------------------------
  alpha Z        PSCENC =      1642.45118531
  Ewald energy   TEWEN  =    -33940.17512420
  -Hartree energ DENC   =    -17077.89199325
  -exchange      EXHF   =         0.00000000
  -V(xc)+E(xc)   XCENC  =      -617.56595420
  PAW double counting   =     46020.13618675   -43994.38451620
  entropy T*S    EENTRO =        -0.01015488
  eigenvalues    EBANDS =      -631.15383149
  atomic energy  EATOM  =     49749.42546356
  ---------------------------------------------------
  free energy    TOTEN  =      1150.83126141 eV

  energy without entropy =     1150.84141629  energy(sigma->0) =     1150.83633885
  exchange ACFDT corr.  =         0.00000000  see jH, gK, PRB 81, 115126


--------------------------------------------------------------------------------------------------------




--------------------------------------- Iteration      1(   3)  ---------------------------------------


    TRIAL :  cpu time    8.3137: real time    8.3304
    CORREC:  cpu time    0.0012: real time    0.0012
    --------------------------------------------
      LOOP:  cpu time    8.3273: real time    8.3683

 eigenvalue-minimisations  : 15360
 total energy-change (2. order) :-0.2048540E+03  (-0.2026542E+03)
 number of electron     588.0000000 magnetization      65.0000000     65.0000000     65.0000000
 augmentation part      588.0000000 magnetization      65.0000000     65.0000000     65.0000000

 Free energy of the ion-electron system (eV)
  ---------------------------------------------------
  alpha Z        PSCENC =      1642.45118531
  Ewald energy   TEWEN  =    -33940.17512420
  -Hartree energ DENC   =    -17077.89199325
  -exchange      EXHF   =         0.00000000
  -V(xc)+E(xc)   XCENC  =      -617.56595420
  PAW double counting   =     46020.13618675   -43994.38451620
  entropy T*S    EENTRO =        -0.01245141
  eigenvalues    EBANDS =      -836.00557078
  atomic energy  EATOM  =     49749.42546356
  ---------------------------------------------------
  free energy    TOTEN  =       945.97722559 eV

  energy without entropy =      945.98967700  energy(sigma->0) =      945.98345130
  exchange ACFDT corr.  =         0.00000000  see jH, gK, PRB 81, 115126


--------------------------------------------------------------------------------------------------------




--------------------------------------- Iteration      1(   4)  ---------------------------------------


    TRIAL :  cpu time    8.4653: real time    8.4806
    CORREC:  cpu time    0.0013: real time    0.0013
    --------------------------------------------
      LOOP:  cpu time    8.4790: real time    8.5158

 eigenvalue-minimisations  : 15424
 total energy-change (2. order) :-0.4309863E+01  (-0.4303647E+01)
 number of electron     588.0000000 magnetization      65.0000000     65.0000000     65.0000000
 augmentation part      588.0000000 magnetization      65.0000000     65.0000000     65.0000000

 Free energy of the ion-electron system (eV)
  ---------------------------------------------------
  alpha Z        PSCENC =      1642.45118531
  Ewald energy   TEWEN  =    -33940.17512420
  -Hartree energ DENC   =    -17077.89199325
  -exchange      EXHF   =         0.00000000
  -V(xc)+E(xc)   XCENC  =      -617.56595420
  PAW double counting   =     46020.13618675   -43994.38451620
  entropy T*S    EENTRO =        -0.01277932
  eigenvalues    EBANDS =      -840.31510618
  atomic energy  EATOM  =     49749.42546356
  ---------------------------------------------------
  free energy    TOTEN  =       941.66736228 eV

  energy without entropy =      941.68014160  energy(sigma->0) =      941.67375194
  exchange ACFDT corr.  =         0.00000000  see jH, gK, PRB 81, 115126


--------------------------------------------------------------------------------------------------------




--------------------------------------- Iteration      1(   5)  ---------------------------------------


    TRIAL :  cpu time    8.2451: real time    8.2613
    CORREC:  cpu time    0.0028: real time    0.0028
    CHARGE:  cpu time    0.6932: real time    0.6946
    --------------------------------------------
      LOOP:  cpu time    8.9518: real time    8.9950

 eigenvalue-minimisations  : 15232
 total energy-change (2. order) :-0.7685778E-01  (-0.7669838E-01)
 number of electron     588.0000006 magnetization       0.6809913      0.6809841      0.6809911
 augmentation part      145.5208399 magnetization       0.5827001      0.5827277      0.5826848

 Free energy of the ion-electron system (eV)
  ---------------------------------------------------
  alpha Z        PSCENC =      1642.45118531
  Ewald energy   TEWEN  =    -33940.17512420
  -Hartree energ DENC   =    -17077.89199325
  -exchange      EXHF   =         0.00000000
  -V(xc)+E(xc)   XCENC  =      -617.56595420
  PAW double counting   =     46020.13618675   -43994.38451620
  entropy T*S    EENTRO =        -0.01278129
  eigenvalues    EBANDS =      -840.39196199
  atomic energy  EATOM  =     49749.42546356
  ---------------------------------------------------
  free energy    TOTEN  =       941.59050450 eV

  energy without entropy =      941.60328580  energy(sigma->0) =      941.59689515
  exchange ACFDT corr.  =         0.00000000  see jH, gK, PRB 81, 115126


--------------------------------------------------------------------------------------------------------




--------------------------------------- Iteration      1(   6)  ---------------------------------------


    POTLOK:  cpu time    0.6934: real time    0.6946
    SETDIJ:  cpu time    1.8425: real time    1.8428
    TRIAL :  cpu time  263.4276: real time  263.5765
    CORREC:  cpu time 1057.3176: real time 1057.7487
    EDDIAG:  cpu time  258.9200: real time  259.0324
    CHARGE:  cpu time    0.6257: real time    0.6261
    --------------------------------------------
      LOOP:  cpu time 1582.8516: real time 1583.5640

 eigenvalue-minimisations  :     0
 total energy-change (2. order) : 0.5874394E+04  (-0.1981233E+16)
 number of electron             NaN magnetization             NaN            NaN            NaN
 augmentation part              NaN magnetization             NaN            NaN            NaN

 Free energy of the ion-electron system (eV)
  ---------------------------------------------------
  alpha Z        PSCENC =      1642.45118531
  Ewald energy   TEWEN  =    -33940.17512420
  -Hartree energ DENC   =    -15675.17573908
  -exchange      EXHF   =                NaN
  -V(xc)+E(xc)   XCENC  =      -655.55092720
  PAW double counting   =    120034.81806650  -117946.43878474
  entropy T*S    EENTRO =        -0.00766868
  eigenvalues    EBANDS =      9466.12181138
  atomic energy  EATOM  =     49749.42546356
  ---------------------------------------------------
  free energy    TOTEN  =      6815.98423678 eV

  energy without entropy =     6815.99190546  energy(sigma->0) =     6815.98807112
  exchange ACFDT corr.  =        -0.01688941  see jH, gK, PRB 81, 115126


--------------------------------------------------------------------------------------------------------


  average scaling for gradient   0.9436


 average (electrostatic) potential at core
  the test charge radii are     1.0698  1.1897
  (the norm of the test charge is              1.0000)
       1  -9.5311       2 -13.8665       3 -13.9929       4 -14.8245       5 -13.8647
       6 -14.8295       7 -14.8279       8 -15.4390       9 -13.6596      10 -10.1954
      11 -14.8884      12 -13.5612      13 -14.8401      14 -13.9043      15 -15.4299
      16 -14.8106      17 -14.5060      18 -13.5907      19 -15.1636      20 -14.5437
      21 -13.8074      22 -10.1390      23 -14.7877      24 -13.7984      25 -13.5533
      26 -14.5559      27 -14.5064      28 -15.1549      29 -10.1637      30 -13.8391
      31 -13.7744      32 -14.7419      33  -4.4435      34 -89.6915      35 -86.3959
      36 -90.6713      37 -89.7314      38 -90.1485      39 -86.8083      40 -90.8076
      41 -90.1024      42 -89.2257      43 -89.0825      44 -89.0469      45 -89.2220
      46 -89.5403      47 -89.6912      48 -89.6724      49 -89.5224      50 -89.9793
      51 -90.0997      52 -90.8096      53 -90.7740      54 -86.8185      55 -86.7233
      56 -90.2153      57 -90.0335      58 -90.8020      59 -90.0555      60 -90.7820
      61 -90.0336      62 -90.1913      63 -86.7680      64 -90.1249      65 -86.6366



 E-fermi :   3.3526     XC(G=0):  -7.3038     alpha+bet : -7.2837


 k-point     1 :       0.0000    0.0000    0.0000
  band No.  band energies     occupation 
      1       1.3899      1.00000
      2       1.3899      1.00000
      3       1.3899      1.00000
      4       1.3899      1.00000
      5       1.3899      1.00000
      6       1.3899      1.00000
      7       1.3899      1.00000
      8       1.3899      1.00000
      9       1.3899      1.00000
     10       1.3899      1.00000
     11       1.3899      1.00000
     12       1.3899      1.00000
     13       1.3899      1.00000
     14       1.3899      1.00000
     15       1.3899      1.00000
     16       1.3899      1.00000
     17       1.3899      1.00000
     18       1.3899      1.00000
     19       1.3899      1.00000
     20       1.3899      1.00000
     21       1.3899      1.00000
     22       1.3899      1.00000
     23       1.3899      1.00000
     24       1.3899      1.00000
     25       1.3899      1.00000
     26       1.3899      1.00000
     27       1.3899      1.00000
     28       1.3899      1.00000
     29       1.3899      1.00000
     30       1.3899      1.00000
     31       1.3899      1.00000
     32       1.3899      1.00000
     33       1.3899      1.00000
     34       1.3899      1.00000
     35       1.3899      1.00000
     36       1.3899      1.00000
     37       1.3899      1.00000
     38       1.3899      1.00000
     39       1.3899      1.00000
     40       1.3899      1.00000
     41       1.3899      1.00000
     42       1.3899      1.00000
     43       1.3899      1.00000
     44       1.3899      1.00000
     45       1.3899      1.00000
     46       1.3899      1.00000
     47       1.3899      1.00000
     48       1.3899      1.00000
     49       1.3899      1.00000
     50       1.3899      1.00000
     51       1.3899      1.00000
     52       1.3899      1.00000
     53       1.3899      1.00000
     54       1.3899      1.00000
     55       1.3899      1.00000
     56       1.3899      1.00000
     57       1.3899      1.00000
     58       1.3899      1.00000
     59       1.3899      1.00000
     60       1.3899      1.00000
     61       1.3899      1.00000
     62       1.3899      1.00000
     63       1.3899      1.00000
     64       1.3899      1.00000
     65       1.3899      1.00000
     66       1.3899      1.00000
     67       1.3899      1.00000
     68       1.3899      1.00000
     69       1.3899      1.00000
     70       1.3899      1.00000
     71       1.3899      1.00000
     72       1.3899      1.00000
     73       1.3899      1.00000
     74       1.3899      1.00000
     75       1.3899      1.00000
     76       1.3899      1.00000
     77       1.3899      1.00000
     78       1.3899      1.00000
     79       1.3899      1.00000
     80       1.3899      1.00000
     81       1.3899      1.00000
     82       1.3899      1.00000
     83       1.3899      1.00000
     84       1.3899      1.00000
     85       1.3899      1.00000
     86       1.3899      1.00000
     87       1.3899      1.00000
     88       1.3899      1.00000
     89       1.3899      1.00000
     90       1.3899      1.00000
     91       1.3899      1.00000
     92       1.3899      1.00000
     93       1.3899      1.00000
     94       1.3899      1.00000
     95       1.3899      1.00000
     96       1.3899      1.00000
     97       1.3899      1.00000
     98       1.3899      1.00000
     99       1.3899      1.00000
    100       1.3899      1.00000
    101       1.3899      1.00000
    102       1.3899      1.00000
    103       1.3899      1.00000
    104       1.3899      1.00000
    105       1.3899      1.00000
    106       1.3899      1.00000
    107       1.3899      1.00000
    108       1.3899      1.00000
    109       1.3899      1.00000
    110       1.3899      1.00000
    111       1.3899      1.00000
    112       1.3899      1.00000
    113       1.3899      1.00000
    114       1.3899      1.00000
    115       1.3899      1.00000
    116       1.3899      1.00000
    117       1.3899      1.00000
    118       1.3899      1.00000
    119       1.3899      1.00000
    120       1.3899      1.00000
    121       1.3899      1.00000
    122       1.3899      1.00000
    123       1.3899      1.00000
    124       1.3899      1.00000
    125       1.3899      1.00000
    126       1.3899      1.00000
    127       1.3899      1.00000
    128       1.3899      1.00000
    129       1.3899      1.00000
    130       1.3899      1.00000
    131       1.3899      1.00000
    132       1.3899      1.00000
    133       1.3899      1.00000
    134       1.3899      1.00000
    135       1.3899      1.00000
    136       1.3899      1.00000
    137       1.3899      1.00000
    138       1.3899      1.00000
    139       1.3899      1.00000
    140       1.3899      1.00000
    141       1.3899      1.00000
    142       1.3899      1.00000
    143       1.3899      1.00000
    144       1.3899      1.00000
    145       1.3899      1.00000
    146       1.3899      1.00000
    147       1.3899      1.00000
    148       1.3899      1.00000
    149       1.3899      1.00000
    150       1.3899      1.00000
    151       1.3899      1.00000
    152       1.3899      1.00000
    153       1.3899      1.00000
    154       1.3899      1.00000
    155       1.3899      1.00000
    156       1.3899      1.00000
    157       1.3899      1.00000
    158       1.3899      1.00000
    159       1.3899      1.00000
    160       1.3899      1.00000
    161       1.3899      1.00000
    162       1.3899      1.00000
    163       1.3899      1.00000
    164       1.3899      1.00000
    165       1.3899      1.00000
    166       1.3899      1.00000
    167       1.3899      1.00000
    168       1.3899      1.00000
    169       1.3899      1.00000
    170       1.3899      1.00000
    171       1.3899      1.00000
    172       1.3899      1.00000
    173       1.3899      1.00000
    174       1.3899      1.00000
    175       1.3899      1.00000
    176       1.3899      1.00000
    177       1.3899      1.00000
    178       1.3899      1.00000
    179       1.3899      1.00000
    180       1.3899      1.00000
    181       1.3899      1.00000
    182       1.3899      1.00000
    183       1.3899      1.00000
    184       1.3899      1.00000
    185       1.3899      1.00000
    186       1.3899      1.00000
    187       1.3899      1.00000
    188       1.3899      1.00000
    189       1.3899      1.00000
    190       1.3899      1.00000
    191       1.3899      1.00000
    192       1.3899      1.00000
    193       1.3899      1.00000
    194       1.3899      1.00000
    195       1.3899      1.00000
    196       1.3899      1.00000
    197       1.3899      1.00000
    198       1.3899      1.00000
    199       1.3899      1.00000
    200       1.3899      1.00000
    201       1.3899      1.00000
    202       1.3899      1.00000
    203       1.3899      1.00000
    204       1.3899      1.00000
    205       1.3899      1.00000
    206       1.3899      1.00000
    207       1.3899      1.00000
    208       1.3899      1.00000
    209       1.3899      1.00000
    210       1.3899      1.00000
    211       1.3899      1.00000
    212       1.3899      1.00000
    213       1.3899      1.00000
    214       1.3899      1.00000
    215       1.3899      1.00000
    216       1.3899      1.00000
    217       1.3899      1.00000
    218       1.3899      1.00000
    219       1.3899      1.00000
    220       1.3899      1.00000
    221       1.3899      1.00000
    222       1.3899      1.00000
    223       1.3899      1.00000
    224       1.3899      1.00000
    225       1.3899      1.00000
    226       1.3899      1.00000
    227       1.3899      1.00000
    228       1.3899      1.00000
    229       1.3899      1.00000
    230       1.3899      1.00000
    231       1.3899      1.00000
    232       1.3899      1.00000
    233       1.3899      1.00000
    234       1.3899      1.00000
    235       1.3899      1.00000
    236       1.3899      1.00000
    237       1.3899      1.00000
    238       1.3899      1.00000
    239       1.3899      1.00000
    240       1.3899      1.00000
    241       1.3899      1.00000
    242       1.3899      1.00000
    243       1.3899      1.00000
    244       1.3899      1.00000
    245       1.3899      1.00000
    246       1.3899      1.00000
    247       1.3899      1.00000
    248       1.3899      1.00000
    249       1.3899      1.00000
    250       1.3899      1.00000
    251       1.3899      1.00000
    252       1.3899      1.00000
    253       1.3899      1.00000
    254       1.3899      1.00000
    255       1.3899      1.00000
    256       1.3899      1.00000
    257       1.3899      1.00000
    258       1.3899      1.00000
    259       1.3899      1.00000
    260       1.3899      1.00000
    261       1.3899      1.00000
    262       1.3899      1.00000
    263       1.3899      1.00000
    264       1.3899      1.00000
    265       1.3899      1.00000
    266       1.3899      1.00000
    267       1.3899      1.00000
    268       1.3899      1.00000
    269       1.3899      1.00000
    270       1.3899      1.00000
    271       1.3899      1.00000
    272       1.3899      1.00000
    273       1.3899      1.00000
    274       1.3899      1.00000
    275       1.3899      1.00000
    276       1.3899      1.00000
    277       1.3899      1.00000
    278       1.3899      1.00000
    279       1.3899      1.00000
    280       1.3899      1.00000
    281       1.3899      1.00000
    282       1.3899      1.00000
    283       1.3899      1.00000
    284       1.3899      1.00000
    285       1.3899      1.00000
    286       1.3899      1.00000
    287       1.3899      1.00000
    288       1.3899      1.00000
    289       1.3899      1.00000
    290       1.3899      1.00000
    291       1.3899      1.00000
    292       1.3899      1.00000
    293       1.3899      1.00000
    294       1.3899      1.00000
    295       1.3899      1.00000
    296       1.3899      1.00000
    297       1.3899      1.00000
    298       1.3899      1.00000
    299       1.3899      1.00000
    300       1.3899      1.00000
    301       1.3899      1.00000
    302       1.3899      1.00000
    303       1.3899      1.00000
    304       1.3899      1.00000
    305       1.3899      1.00000
    306       1.3899      1.00000
    307       1.3899      1.00000
    308       1.3899      1.00000
    309       1.3899      1.00000
    310       1.3899      1.00000
    311       1.3899      1.00000
    312       1.3899      1.00000
    313       1.3899      1.00000
    314       1.3899      1.00000
    315       1.3899      1.00000
    316       1.3899      1.00000
    317       1.3899      1.00000
    318       1.3899      1.00000
    319       1.3899      1.00000
    320       1.3899      1.00000
    321       1.3899      1.00000
    322       1.3899      1.00000
    323       1.3899      1.00000
    324       1.3899      1.00000
    325       1.3899      1.00000
    326       1.3899      1.00000
    327       1.3899      1.00000
    328       1.3899      1.00000
    329       1.3899      1.00000
    330       1.3899      1.00000
    331       1.3899      1.00000
    332       1.3899      1.00000
    333       1.3899      1.00000
    334       1.3899      1.00000
    335       1.3899      1.00000
    336       1.3899      1.00000
    337       1.3899      1.00000
    338       1.3899      1.00000
    339       1.3899      1.00000
    340       1.3899      1.00000
    341       1.3899      1.00000
    342       1.3899      1.00000
    343       1.3899      1.00000
    344       1.3899      1.00000
    345       1.3899      1.00000
    346       1.3899      1.00000
    347       1.3899      1.00000
    348       1.3899      1.00000
    349       1.3899      1.00000
    350       1.3899      1.00000
    351       1.3899      1.00000
    352       1.3899      1.00000
    353       1.3899      1.00000
    354       1.3899      1.00000
    355       1.3899      1.00000
    356       1.3899      1.00000
    357       1.3899      1.00000
    358       1.3899      1.00000
    359       1.3899      1.00000
    360       1.3899      1.00000
    361       1.3899      1.00000
    362       1.3899      1.00000
    363       1.3899      1.00000
    364       1.3899      1.00000
    365       1.3899      1.00000
    366       1.3899      1.00000
    367       1.3899      1.00000
    368       1.3899      1.00000
    369       1.3899      1.00000
    370       1.3899      1.00000
    371       1.3899      1.00000
    372       1.3899      1.00000
    373       1.3899      1.00000
    374       1.3899      1.00000
    375       1.3899      1.00000
    376       1.3899      1.00000
    377       1.3899      1.00000
    378       1.3899      1.00000
    379       1.3899      1.00000
    380       1.3899      1.00000
    381       1.3899      1.00000
    382       1.3899      1.00000
    383       1.3899      1.00000
    384       1.3899      1.00000
    385       1.3899      1.00000
    386       1.3899      1.00000
    387       1.3899      1.00000
    388       1.3899      1.00000
    389       1.3899      1.00000
    390       1.3899      1.00000
    391       1.3899      1.00000
    392       1.3899      1.00000
    393       1.3899      1.00000
    394       1.3899      1.00000
    395       1.3899      1.00000
    396       1.3899      1.00000
    397       1.3899      1.00000
    398       1.3899      1.00000
    399       1.3899      1.00000
    400       1.3899      1.00000
    401       1.3899      1.00000
    402       1.3899      1.00000
    403       1.3899      1.00000
    404       1.3899      1.00000
    405       1.3899      1.00000
    406       1.3899      1.00000
    407       1.3899      1.00000
    408       1.3899      1.00000
    409       1.3899      1.00000
    410       1.3899      1.00000
    411       1.3899      1.00000
    412       1.3899      1.00000
    413       1.3899      1.00000
    414       1.3899      1.00000
    415       1.3899      1.00000
    416       1.3899      1.00000
    417       1.3899      1.00000
    418       1.3899      1.00000
    419       1.3899      1.00000
    420       1.3899      1.00000
    421       1.3899      1.00000
    422       1.3899      1.00000
    423       1.3899      1.00000
    424       1.3899      1.00000
    425       1.3899      1.00000
    426       1.3899      1.00000
    427       1.3899      1.00000
    428      13.6341      1.00000
    429      13.6341      1.00000
    430      13.6341      1.00000
    431      13.6341      1.00000
    432      13.6341      1.00000
    433      13.6341      1.00000
    434      13.6341      1.00000
    435      13.6341      1.00000
    436      13.6341      1.00000
    437      13.6341      1.00000
    438      13.6341      1.00000
    439      13.6341      1.00000
    440      13.6341      1.00000
    441      13.6341      1.00000
    442      13.6341      1.00000
    443      13.6341      1.00000
    444      13.6341      1.00000
    445      13.6341      1.00000
    446      13.6341      1.00000
    447      13.6341      1.00000
    448      13.6341      1.00000
    449      13.6341      1.00000
    450      13.6341      1.00000
    451      13.6341      1.00000
    452      13.6341      1.00000
    453      13.6341      1.00000
    454      13.6341      1.00000
    455      13.6341      1.00000
    456      13.6341      1.00000
    457      13.6341      1.00000
    458      13.6341      1.00000
    459      13.6341      1.00000
    460      13.6341      1.00000
    461      13.6341      1.00000
    462      13.6341      1.00000
    463      13.6341      1.00000
    464      13.6341      1.00000
    465      13.6341      1.00000
    466      13.6341      1.00000
    467      13.6341      1.00000
    468      13.6341      1.00000
    469      13.6341      1.00000
    470      13.6341      1.00000
    471      13.6341      1.00000
    472      13.6341      1.00000
    473      13.6341      1.00000
    474      13.6341      1.00000
    475      13.6341      1.00000
    476      13.6341      1.00000
    477      13.6341      1.00000
    478      13.6341      1.00000
    479      13.6341      1.00000
    480      13.6341      1.00000
    481      13.6341      1.00000
    482      13.6341      1.00000
    483      13.6341      1.00000
    484      13.6341      1.00000
    485      13.6341      1.00000
    486      13.6341      1.00000
    487      13.6341      1.00000
    488      13.6341      1.00000
    489      13.6341      1.00000
    490      13.6341      1.00000
    491      13.6341      1.00000
    492      13.6341      1.00000
    493      13.6341      1.00000
    494      13.6341      1.00000
    495      13.6341      1.00000
    496      13.6341      1.00000
    497      13.6341      1.00000
    498      13.6341      1.00000
    499      13.6341      1.00000
    500      13.6341      1.00000
    501      13.6341      1.00000
    502      13.6341      1.00000
    503      13.6341      1.00000
    504      13.6341      1.00000
    505      13.6341      1.00000
    506      13.6341      1.00000
    507      13.6341      1.00000
    508      13.6341      1.00000
    509      13.6341      1.00000
    510      13.6341      1.00000
    511      13.6341      1.00000
    512      13.6341      1.00000
    513      13.6341      1.00000
    514      13.6341      1.00000
    515      13.6341      1.00000
    516      13.6341      1.00000
    517      13.6341      1.00000
    518      13.6341      1.00000
    519      13.6341      1.00000
    520      13.6341      1.00000
    521      13.6341      1.00000
    522      13.6341      1.00000
    523      13.6341      1.00000
    524      13.6341      1.00000
    525      13.6341      1.00000
    526      13.6341      1.00000
    527      13.6341      1.00000
    528      13.6341      1.00000
    529      13.6341      1.00000
    530      13.6341      1.00000
    531      13.6341      1.00000
    532      13.6341      1.00000
    533      13.6341      1.00000
    534      13.6341      1.00000
    535      13.6341      1.00000
    536      13.6341      1.00000
    537      13.6341      1.00000
    538      13.6341      1.00000
    539      13.6341      1.00000
    540      13.6341      1.00000
    541      13.6341      1.00000
    542      13.6341      1.00000
    543      13.6341      1.00000
    544      13.6341      1.00000
    545      13.6341      1.00000
    546      13.6341      1.00000
    547      13.6341      1.00000
    548      13.6341      1.00000
    549      13.6341      1.00000
    550      13.6341      1.00000
    551      13.6341      1.00000
    552      13.6341      1.00000
    553      13.6341      1.00000
    554      13.6341      1.00000
    555      13.6341      1.00000
    556      13.6341      1.00000
    557      13.6341      1.00000
    558      13.6341      1.00000
    559      13.6341      1.00000
    560      13.6341      1.00000
    561      13.6341      1.00000
    562      13.6341      1.00000
    563      13.6341      1.00000
    564      13.6341      1.00000
    565      13.6341      1.00000
    566      13.6341      1.00000
    567      13.6341      1.00000
    568      13.6341      1.00000
    569      13.6341      1.00000
    570      13.6341      1.00000
    571      13.6341      1.00000
    572      13.6341      1.00000
    573      13.6341      1.00000
    574      13.6341      1.00000
    575      13.6341      1.00000
    576      13.6341      1.00000
    577      13.6341      1.00000
    578      13.6341      1.00000
    579      13.6341      1.00000
    580      13.6341      1.00000
    581      13.6341      1.00000
    582      13.6341      1.00000
    583      13.6341      1.00000
    584      13.6341      1.00000
    585      13.6341      1.00000
    586      13.6341      1.00000
    587      13.6341      1.00000
    588       6.6966      0.68950
    589       6.7239      0.57005
    590       6.7312      0.35893
    591       6.8967      0.21838
    592       6.9072      0.09012
    593       6.9242      0.06040
    594       6.9798      0.00000
    595       6.9891      0.00000
    596       7.0080      0.00000
    597       7.0499      0.00000
    598       7.0596      0.00000
    599       7.1017      0.00000
    600       7.1558      0.00000
    601       7.1803      0.00000
    602       7.1832      0.00000
    603       7.2181      0.00000
    604       7.2271      0.00000
    605       7.2315      0.00000
    606       7.2331      0.00000
    607       7.2770      0.00000
    608       7.2817      0.00000
    609       7.2825      0.00000
    610       7.2893      0.00000
    611       7.3019      0.00000
    612       7.3101      0.00000
    613       7.3278      0.00000
    614       7.3296      0.00000
    615       7.3345      0.00000
    616       7.3356      0.00000
    617       7.3418      0.00000
    618       7.3450      0.00000
    619       7.3453      0.00000
    620       7.3828      0.00000
    621       7.3830      0.00000
    622       7.4846      0.00000
    623       7.5609      0.00000
    624       7.5753      0.00000
    625       7.5757      0.00000
    626       7.5794      0.00000
    627       7.6119      0.00000
    628       7.6166      0.00000
    629       7.6173      0.00000
    630       7.6246      0.00000
    631       7.6325      0.00000
    632       7.6395      0.00000
    633       7.6415      0.00000
    634       7.7031      0.00000
    635       7.7097      0.00000
    636       7.7277      0.00000
    637       7.7298      0.00000
    638       7.7464      0.00000
    639       7.7868      0.00000
    640       7.8344      0.00000
    641       7.8448      0.00000
    642       7.8675      0.00000
    643       7.9093      0.00000
    644       7.9307      0.00000
    645       7.9477      0.00000
    646       7.9997      0.00000
    647       8.0147      0.00000
    648       8.0188      0.00000
    649       8.0202      0.00000
    650       8.0832      0.00000
    651       8.0890      0.00000
    652       8.1199      0.00000
    653       8.1262      0.00000
    654       8.1273      0.00000
    655       8.1307      0.00000
    656       8.1497      0.00000
    657       8.1545      0.00000
    658       8.1722      0.00000
    659       8.1860      0.00000
    660       8.2001      0.00000
    661       8.2030      0.00000
    662       8.2060      0.00000
    663       8.2067      0.00000
    664       8.2096      0.00000
    665       8.2155      0.00000
    666       8.2394      0.00000
    667       8.2436      0.00000
    668       8.2554      0.00000
    669       8.2578      0.00000
    670       8.2880      0.00000
    671       8.2967      0.00000
    672       8.3020      0.00000
    673       8.3084      0.00000
    674       8.3123      0.00000
    675       8.3130      0.00000
    676       8.3198      0.00000
    677       8.3214      0.00000
    678       8.3252      0.00000
    679       8.3393      0.00000
    680       8.3544      0.00000
    681       8.3571      0.00000
    682       8.3871      0.00000
    683       8.4308      0.00000
    684       8.4355      0.00000
    685       8.4830      0.00000
    686       8.4958      0.00000
    687       8.4978      0.00000
    688       8.5096      0.00000
    689       8.5114      0.00000
    690       8.5309      0.00000
    691       8.5573      0.00000
    692       8.5595      0.00000
    693       8.5865      0.00000
    694       8.5982      0.00000
    695       8.6051      0.00000
    696       8.6388      0.00000
    697       8.6695      0.00000
    698       8.6732      0.00000
    699       8.6871      0.00000
    700       8.7121      0.00000
    701       8.7218      0.00000
    702       8.7494      0.00000
    703       8.7625      0.00000
    704       8.7710      0.00000
    705       8.7769      0.00000
    706       8.7814      0.00000
    707       8.7853      0.00000
    708       8.7904      0.00000
    709       8.7965      0.00000
    710       8.7983      0.00000
    711       8.8007      0.00000
    712       8.8014      0.00000
    713       8.8163      0.00000
    714       8.8373      0.00000
    715       8.8520      0.00000
    716       8.8732      0.00000
    717       8.9095      0.00000
    718       8.9161      0.00000
    719       8.9311      0.00000
    720       8.9522      0.00000
    721       8.9709      0.00000
    722       8.9916      0.00000
    723       9.0482      0.00000
    724       9.0649      0.00000
    725       9.0754      0.00000
    726       9.0985      0.00000
    727       9.1161      0.00000
    728       9.1277      0.00000
    729       9.1341      0.00000
    730       9.1439      0.00000
    731       9.1466      0.00000
    732       9.1544      0.00000
    733       9.1561      0.00000
    734       9.1562      0.00000
    735       9.1607      0.00000
    736       9.1682      0.00000
    737       9.1736      0.00000
    738       9.1749      0.00000
    739       9.1764      0.00000
    740       9.1840      0.00000
    741       9.1856      0.00000
    742       9.2030      0.00000
    743       9.2059      0.00000
    744       9.2195      0.00000
    745       9.2265      0.00000
    746       9.2417      0.00000
    747       9.2425      0.00000
    748       9.2572      0.00000
    749       9.2574      0.00000
    750       9.2658      0.00000
    751       9.2673      0.00000
    752       9.2681      0.00000
    753       9.2769      0.00000
    754       9.2780      0.00000
    755       9.2881      0.00000
    756       9.2928      0.00000
    757       9.2944      0.00000
    758       9.2972      0.00000
    759       9.2974      0.00000
    760       9.3047      0.00000
    761       9.3225      0.00000
    762       9.3262      0.00000
    763       9.3310      0.00000
    764       9.3508      0.00000
    765       9.3511      0.00000
    766       9.3629      0.00000
    767       9.3638      0.00000
    768       9.3827      0.00000
    769       9.3864      0.00000
    770       9.3874      0.00000
    771       9.3980      0.00000
    772       9.4096      0.00000
    773       9.4100      0.00000
    774       9.4251      0.00000
    775       9.4287      0.00000
    776       9.4399      0.00000
    777       9.4471      0.00000
    778       9.4621      0.00000
    779       9.4665      0.00000
    780       9.4670      0.00000
    781       9.4820      0.00000
    782       9.4874      0.00000
    783       9.4932      0.00000
    784       9.5001      0.00000
    785       9.5061      0.00000
    786       9.5148      0.00000
    787       9.5159      0.00000
    788       9.5219      0.00000
    789       9.5220      0.00000
    790       9.5264      0.00000
    791       9.5288      0.00000
    792       9.5347      0.00000
    793       9.5376      0.00000
    794       9.5415      0.00000
    795       9.5531      0.00000
    796       9.5546      0.00000
    797       9.5599      0.00000
    798       9.5605      0.00000
    799       9.5737      0.00000
    800       9.5739      0.00000
    801       9.5779      0.00000
    802       9.5781      0.00000
    803       9.5955      0.00000
    804       9.6111      0.00000
    805       9.6371      0.00000
    806       9.6480      0.00000
    807       9.6503      0.00000
    808       9.7198      0.00000
    809       9.7547      0.00000
    810       9.7896      0.00000
    811       9.7912      0.00000
    812       9.7947      0.00000
    813       9.8144      0.00000
    814       9.8309      0.00000
    815       9.8558      0.00000
    816       9.9012      0.00000
    817       9.9039      0.00000
    818       9.9061      0.00000
    819       9.9746      0.00000
    820      10.0073      0.00000
    821      10.0218      0.00000
    822      10.0699      0.00000
    823      10.0720      0.00000
    824      10.1124      0.00000
    825      10.1833      0.00000
    826      10.6152      0.00000
    827      10.6424      0.00000
    828      10.6790      0.00000
    829      16.7177      0.00000
    830      50.0791      0.00000
    831      50.8439      0.00000
    832      51.5070      0.00000

 k-point     2 :       0.5000    0.0000    0.0000
  band No.  band energies     occupation 
      1      -7.6004      1.00000
      2      -7.6004      1.00000
      3      -7.6004      1.00000
      4      -7.6004      1.00000
      5      -7.6004      1.00000
      6      -7.6004      1.00000
      7      -7.6004      1.00000
      8      -7.6004      1.00000
      9      -7.6004      1.00000
     10      -7.6004      1.00000
     11      -7.6004      1.00000
     12      -7.6004      1.00000
     13      -7.6004      1.00000
     14      -7.6004      1.00000
     15      -7.6004      1.00000
     16      -7.6004      1.00000
     17      -7.6004      1.00000
     18      -7.6004      1.00000
     19      -7.6004      1.00000
     20      -7.6004      1.00000
     21      -7.6004      1.00000
     22      -7.6004      1.00000
     23      -7.6004      1.00000
     24      -7.6004      1.00000
     25      -7.6004      1.00000
     26      -7.6004      1.00000
     27      -7.6004      1.00000
     28      -7.6004      1.00000
     29      -7.6004      1.00000
     30      -7.6004      1.00000
     31      -7.6004      1.00000
     32      -7.6004      1.00000
     33      -7.6004      1.00000
     34      -7.6004      1.00000
     35      -7.6004      1.00000
     36      -7.6004      1.00000
     37      -7.6004      1.00000
     38      -7.6004      1.00000
     39      -7.6004      1.00000
     40      -7.6004      1.00000
     41      -7.6004      1.00000
     42      -7.6004      1.00000
     43      -7.6004      1.00000
     44      -7.6004      1.00000
     45      -7.6004      1.00000
     46      -7.6004      1.00000
     47      -7.6004      1.00000
     48      -7.6004      1.00000
[...]
  0.081  -0.000   0.089   0.000   0.048  -0.000  -0.001   0.000   0.084  -0.000   0.080  -0.000   0.088   0.000   0.048  -0.000
 -0.001  -0.000  -0.085   0.000   0.101  -0.000   0.081  -0.000   0.000  -0.000  -0.001  -0.000  -0.083   0.000   0.099  -0.000
 -0.085  -0.000  -0.001  -0.000  -0.046   0.000   0.090  -0.000   0.080  -0.000  -0.084  -0.000  -0.001  -0.000  -0.045   0.000
  0.087  -0.000   0.096   0.000   0.052  -0.000  -0.002   0.000   0.090  -0.000   0.086  -0.000   0.094   0.000   0.051  -0.000
 -0.002  -0.000  -0.091   0.000   0.109  -0.000   0.087  -0.000   0.000  -0.000  -0.002  -0.000  -0.090   0.000   0.107  -0.000
 -0.091  -0.000  -0.002  -0.000  -0.049   0.000   0.096  -0.000   0.086  -0.000  -0.090  -0.000  -0.002  -0.000  -0.049   0.000
 total augmentation occupancy for first ion, spin component:           1
    NaN     NaN     NaN     NaN     NaN     NaN     NaN     NaN     NaN     NaN     NaN     NaN     NaN     NaN     NaN     NaN
    NaN     NaN     NaN     NaN     NaN     NaN     NaN     NaN     NaN     NaN     NaN     NaN     NaN     NaN     NaN     NaN
    NaN     NaN     NaN     NaN     NaN     NaN     NaN     NaN     NaN     NaN     NaN     NaN     NaN     NaN     NaN     NaN
    NaN     NaN     NaN     NaN     NaN     NaN     NaN     NaN     NaN     NaN     NaN     NaN     NaN     NaN     NaN     NaN
    NaN     NaN     NaN     NaN     NaN     NaN     NaN     NaN     NaN     NaN     NaN     NaN     NaN     NaN     NaN     NaN
    NaN     NaN     NaN     NaN     NaN     NaN     NaN     NaN     NaN     NaN     NaN     NaN     NaN     NaN     NaN     NaN
    NaN     NaN     NaN     NaN     NaN     NaN     NaN     NaN     NaN     NaN     NaN     NaN     NaN     NaN     NaN     NaN
    NaN     NaN     NaN     NaN     NaN     NaN     NaN     NaN     NaN     NaN     NaN     NaN     NaN     NaN     NaN     NaN
    NaN     NaN     NaN     NaN     NaN     NaN     NaN     NaN     NaN     NaN     NaN     NaN     NaN     NaN     NaN     NaN
    NaN     NaN     NaN     NaN     NaN     NaN     NaN     NaN     NaN     NaN     NaN     NaN     NaN     NaN     NaN     NaN
    NaN     NaN     NaN     NaN     NaN     NaN     NaN     NaN     NaN     NaN     NaN     NaN     NaN     NaN     NaN     NaN
    NaN     NaN     NaN     NaN     NaN     NaN     NaN     NaN     NaN     NaN     NaN     NaN     NaN     NaN     NaN     NaN
    NaN     NaN     NaN     NaN     NaN     NaN     NaN     NaN     NaN     NaN     NaN     NaN     NaN     NaN     NaN     NaN
    NaN     NaN     NaN     NaN     NaN     NaN     NaN     NaN     NaN     NaN     NaN     NaN     NaN     NaN     NaN     NaN
    NaN     NaN     NaN     NaN     NaN     NaN     NaN     NaN     NaN     NaN     NaN     NaN     NaN     NaN     NaN     NaN
    NaN     NaN     NaN     NaN     NaN     NaN     NaN     NaN     NaN     NaN     NaN     NaN     NaN     NaN     NaN     NaN
    NaN     NaN     NaN     NaN     NaN     NaN     NaN     NaN     NaN     NaN     NaN     NaN     NaN     NaN     NaN     NaN
    NaN     NaN     NaN     NaN     NaN     NaN     NaN     NaN     NaN     NaN     NaN     NaN     NaN     NaN     NaN     NaN
 total augmentation occupancy for first ion, spin component:           2
    NaN     NaN     NaN     NaN     NaN     NaN     NaN     NaN     NaN     NaN     NaN     NaN     NaN     NaN     NaN     NaN
    NaN     NaN     NaN     NaN     NaN     NaN     NaN     NaN     NaN     NaN     NaN     NaN     NaN     NaN     NaN     NaN
    NaN     NaN     NaN     NaN     NaN     NaN     NaN     NaN     NaN     NaN     NaN     NaN     NaN     NaN     NaN     NaN
    NaN     NaN     NaN     NaN     NaN     NaN     NaN     NaN     NaN     NaN     NaN     NaN     NaN     NaN     NaN     NaN
    NaN     NaN     NaN     NaN     NaN     NaN     NaN     NaN     NaN     NaN     NaN     NaN     NaN     NaN     NaN     NaN
    NaN     NaN     NaN     NaN     NaN     NaN     NaN     NaN     NaN     NaN     NaN     NaN     NaN     NaN     NaN     NaN
    NaN     NaN     NaN     NaN     NaN     NaN     NaN     NaN     NaN     NaN     NaN     NaN     NaN     NaN     NaN     NaN
    NaN     NaN     NaN     NaN     NaN     NaN     NaN     NaN     NaN     NaN     NaN     NaN     NaN     NaN     NaN     NaN
    NaN     NaN     NaN     NaN     NaN     NaN     NaN     NaN     NaN     NaN     NaN     NaN     NaN     NaN     NaN     NaN
    NaN     NaN     NaN     NaN     NaN     NaN     NaN     NaN     NaN     NaN     NaN     NaN     NaN     NaN     NaN     NaN
    NaN     NaN     NaN     NaN     NaN     NaN     NaN     NaN     NaN     NaN     NaN     NaN     NaN     NaN     NaN     NaN
    NaN     NaN     NaN     NaN     NaN     NaN     NaN     NaN     NaN     NaN     NaN     NaN     NaN     NaN     NaN     NaN
    NaN     NaN     NaN     NaN     NaN     NaN     NaN     NaN     NaN     NaN     NaN     NaN     NaN     NaN     NaN     NaN
    NaN     NaN     NaN     NaN     NaN     NaN     NaN     NaN     NaN     NaN     NaN     NaN     NaN     NaN     NaN     NaN
    NaN     NaN     NaN     NaN     NaN     NaN     NaN     NaN     NaN     NaN     NaN     NaN     NaN     NaN     NaN     NaN
    NaN     NaN     NaN     NaN     NaN     NaN     NaN     NaN     NaN     NaN     NaN     NaN     NaN     NaN     NaN     NaN
    NaN     NaN     NaN     NaN     NaN     NaN     NaN     NaN     NaN     NaN     NaN     NaN     NaN     NaN     NaN     NaN
    NaN     NaN     NaN     NaN     NaN     NaN     NaN     NaN     NaN     NaN     NaN     NaN     NaN     NaN     NaN     NaN
 total augmentation occupancy for first ion, spin component:           3
    NaN     NaN     NaN     NaN     NaN     NaN     NaN     NaN     NaN     NaN     NaN     NaN     NaN     NaN     NaN     NaN
    NaN     NaN     NaN     NaN     NaN     NaN     NaN     NaN     NaN     NaN     NaN     NaN     NaN     NaN     NaN     NaN
    NaN     NaN     NaN     NaN     NaN     NaN     NaN     NaN     NaN     NaN     NaN     NaN     NaN     NaN     NaN     NaN
    NaN     NaN     NaN     NaN     NaN     NaN     NaN     NaN     NaN     NaN     NaN     NaN     NaN     NaN     NaN     NaN
    NaN     NaN     NaN     NaN     NaN     NaN     NaN     NaN     NaN     NaN     NaN     NaN     NaN     NaN     NaN     NaN
    NaN     NaN     NaN     NaN     NaN     NaN     NaN     NaN     NaN     NaN     NaN     NaN     NaN     NaN     NaN     NaN
    NaN     NaN     NaN     NaN     NaN     NaN     NaN     NaN     NaN     NaN     NaN     NaN     NaN     NaN     NaN     NaN
    NaN     NaN     NaN     NaN     NaN     NaN     NaN     NaN     NaN     NaN     NaN     NaN     NaN     NaN     NaN     NaN
    NaN     NaN     NaN     NaN     NaN     NaN     NaN     NaN     NaN     NaN     NaN     NaN     NaN     NaN     NaN     NaN
    NaN     NaN     NaN     NaN     NaN     NaN     NaN     NaN     NaN     NaN     NaN     NaN     NaN     NaN     NaN     NaN
    NaN     NaN     NaN     NaN     NaN     NaN     NaN     NaN     NaN     NaN     NaN     NaN     NaN     NaN     NaN     NaN
    NaN     NaN     NaN     NaN     NaN     NaN     NaN     NaN     NaN     NaN     NaN     NaN     NaN     NaN     NaN     NaN
    NaN     NaN     NaN     NaN     NaN     NaN     NaN     NaN     NaN     NaN     NaN     NaN     NaN     NaN     NaN     NaN
    NaN     NaN     NaN     NaN     NaN     NaN     NaN     NaN     NaN     NaN     NaN     NaN     NaN     NaN     NaN     NaN
    NaN     NaN     NaN     NaN     NaN     NaN     NaN     NaN     NaN     NaN     NaN     NaN     NaN     NaN     NaN     NaN
    NaN     NaN     NaN     NaN     NaN     NaN     NaN     NaN     NaN     NaN     NaN     NaN     NaN     NaN     NaN     NaN
    NaN     NaN     NaN     NaN     NaN     NaN     NaN     NaN     NaN     NaN     NaN     NaN     NaN     NaN     NaN     NaN
    NaN     NaN     NaN     NaN     NaN     NaN     NaN     NaN     NaN     NaN     NaN     NaN     NaN     NaN     NaN     NaN
 total augmentation occupancy for first ion, spin component:           4
    NaN     NaN     NaN     NaN     NaN     NaN     NaN     NaN     NaN     NaN     NaN     NaN     NaN     NaN     NaN     NaN
    NaN     NaN     NaN     NaN     NaN     NaN     NaN     NaN     NaN     NaN     NaN     NaN     NaN     NaN     NaN     NaN
    NaN     NaN     NaN     NaN     NaN     NaN     NaN     NaN     NaN     NaN     NaN     NaN     NaN     NaN     NaN     NaN
    NaN     NaN     NaN     NaN     NaN     NaN     NaN     NaN     NaN     NaN     NaN     NaN     NaN     NaN     NaN     NaN
    NaN     NaN     NaN     NaN     NaN     NaN     NaN     NaN     NaN     NaN     NaN     NaN     NaN     NaN     NaN     NaN
    NaN     NaN     NaN     NaN     NaN     NaN     NaN     NaN     NaN     NaN     NaN     NaN     NaN     NaN     NaN     NaN
    NaN     NaN     NaN     NaN     NaN     NaN     NaN     NaN     NaN     NaN     NaN     NaN     NaN     NaN     NaN     NaN
    NaN     NaN     NaN     NaN     NaN     NaN     NaN     NaN     NaN     NaN     NaN     NaN     NaN     NaN     NaN     NaN
    NaN     NaN     NaN     NaN     NaN     NaN     NaN     NaN     NaN     NaN     NaN     NaN     NaN     NaN     NaN     NaN
    NaN     NaN     NaN     NaN     NaN     NaN     NaN     NaN     NaN     NaN     NaN     NaN     NaN     NaN     NaN     NaN
    NaN     NaN     NaN     NaN     NaN     NaN     NaN     NaN     NaN     NaN     NaN     NaN     NaN     NaN     NaN     NaN
    NaN     NaN     NaN     NaN     NaN     NaN     NaN     NaN     NaN     NaN     NaN     NaN     NaN     NaN     NaN     NaN
    NaN     NaN     NaN     NaN     NaN     NaN     NaN     NaN     NaN     NaN     NaN     NaN     NaN     NaN     NaN     NaN
    NaN     NaN     NaN     NaN     NaN     NaN     NaN     NaN     NaN     NaN     NaN     NaN     NaN     NaN     NaN     NaN
    NaN     NaN     NaN     NaN     NaN     NaN     NaN     NaN     NaN     NaN     NaN     NaN     NaN     NaN     NaN     NaN
    NaN     NaN     NaN     NaN     NaN     NaN     NaN     NaN     NaN     NaN     NaN     NaN     NaN     NaN     NaN     NaN
    NaN     NaN     NaN     NaN     NaN     NaN     NaN     NaN     NaN     NaN     NaN     NaN     NaN     NaN     NaN     NaN
    NaN     NaN     NaN     NaN     NaN     NaN     NaN     NaN     NaN     NaN     NaN     NaN     NaN     NaN     NaN     NaN


------------------------ aborting loop because EDIFF is reached ----------------------------------------





 total charge     

# of ion       s       p       d       tot
------------------------------------------
    1          NaN     NaN     NaN     NaN
    2          NaN     NaN     NaN     NaN
    3          NaN     NaN     NaN     NaN
    4          NaN     NaN     NaN     NaN
    5          NaN     NaN     NaN     NaN
    6          NaN     NaN     NaN     NaN
    7          NaN     NaN     NaN     NaN
    8          NaN     NaN     NaN     NaN
    9          NaN     NaN     NaN     NaN
   10          NaN     NaN     NaN     NaN
   11          NaN     NaN     NaN     NaN
   12          NaN     NaN     NaN     NaN
   13          NaN     NaN     NaN     NaN
   14          NaN     NaN     NaN     NaN
   15          NaN     NaN     NaN     NaN
   16          NaN     NaN     NaN     NaN
   17          NaN     NaN     NaN     NaN
   18          NaN     NaN     NaN     NaN
   19          NaN     NaN     NaN     NaN
   20          NaN     NaN     NaN     NaN
   21          NaN     NaN     NaN     NaN
   22          NaN     NaN     NaN     NaN
   23          NaN     NaN     NaN     NaN
   24          NaN     NaN     NaN     NaN
   25          NaN     NaN     NaN     NaN
   26          NaN     NaN     NaN     NaN
   27          NaN     NaN     NaN     NaN
   28          NaN     NaN     NaN     NaN
   29          NaN     NaN     NaN     NaN
   30          NaN     NaN     NaN     NaN
   31          NaN     NaN     NaN     NaN
   32          NaN     NaN     NaN     NaN
   33          NaN     NaN     NaN     NaN
   34          NaN     NaN     NaN     NaN
   35          NaN     NaN     NaN     NaN
   36          NaN     NaN     NaN     NaN
   37          NaN     NaN     NaN     NaN
   38          NaN     NaN     NaN     NaN
   39          NaN     NaN     NaN     NaN
   40          NaN     NaN     NaN     NaN
   41          NaN     NaN     NaN     NaN
   42          NaN     NaN     NaN     NaN
   43          NaN     NaN     NaN     NaN
   44          NaN     NaN     NaN     NaN
   45          NaN     NaN     NaN     NaN
   46          NaN     NaN     NaN     NaN
   47          NaN     NaN     NaN     NaN
   48          NaN     NaN     NaN     NaN
   49          NaN     NaN     NaN     NaN
   50          NaN     NaN     NaN     NaN
   51          NaN     NaN     NaN     NaN
   52          NaN     NaN     NaN     NaN
   53          NaN     NaN     NaN     NaN
   54          NaN     NaN     NaN     NaN
   55          NaN     NaN     NaN     NaN
   56          NaN     NaN     NaN     NaN
   57          NaN     NaN     NaN     NaN
   58          NaN     NaN     NaN     NaN
   59          NaN     NaN     NaN     NaN
   60          NaN     NaN     NaN     NaN
   61          NaN     NaN     NaN     NaN
   62          NaN     NaN     NaN     NaN
   63          NaN     NaN     NaN     NaN
   64          NaN     NaN     NaN     NaN
   65          NaN     NaN     NaN     NaN
--------------------------------------------------
tot            NaN     NaN     NaN     NaN



 magnetization (x)

# of ion       s       p       d       tot
------------------------------------------
    1          NaN     NaN     NaN     NaN
    2          NaN     NaN     NaN     NaN
    3          NaN     NaN     NaN     NaN
    4          NaN     NaN     NaN     NaN
    5          NaN     NaN     NaN     NaN
    6          NaN     NaN     NaN     NaN
    7          NaN     NaN     NaN     NaN
    8          NaN     NaN     NaN     NaN
    9          NaN     NaN     NaN     NaN
   10          NaN     NaN     NaN     NaN
   11          NaN     NaN     NaN     NaN
   12          NaN     NaN     NaN     NaN
   13          NaN     NaN     NaN     NaN
   14          NaN     NaN     NaN     NaN
   15          NaN     NaN     NaN     NaN
   16          NaN     NaN     NaN     NaN
   17          NaN     NaN     NaN     NaN
   18          NaN     NaN     NaN     NaN
   19          NaN     NaN     NaN     NaN
   20          NaN     NaN     NaN     NaN
   21          NaN     NaN     NaN     NaN
   22          NaN     NaN     NaN     NaN
   23          NaN     NaN     NaN     NaN
   24          NaN     NaN     NaN     NaN
   25          NaN     NaN     NaN     NaN
   26          NaN     NaN     NaN     NaN
   27          NaN     NaN     NaN     NaN
   28          NaN     NaN     NaN     NaN
   29          NaN     NaN     NaN     NaN
   30          NaN     NaN     NaN     NaN
   31          NaN     NaN     NaN     NaN
   32          NaN     NaN     NaN     NaN
   33          NaN     NaN     NaN     NaN
   34          NaN     NaN     NaN     NaN
   35          NaN     NaN     NaN     NaN
   36          NaN     NaN     NaN     NaN
   37          NaN     NaN     NaN     NaN
   38          NaN     NaN     NaN     NaN
   39          NaN     NaN     NaN     NaN
   40          NaN     NaN     NaN     NaN
   41          NaN     NaN     NaN     NaN
   42          NaN     NaN     NaN     NaN
   43          NaN     NaN     NaN     NaN
   44          NaN     NaN     NaN     NaN
   45          NaN     NaN     NaN     NaN
   46          NaN     NaN     NaN     NaN
   47          NaN     NaN     NaN     NaN
   48          NaN     NaN     NaN     NaN
   49          NaN     NaN     NaN     NaN
   50          NaN     NaN     NaN     NaN
   51          NaN     NaN     NaN     NaN
   52          NaN     NaN     NaN     NaN
   53          NaN     NaN     NaN     NaN
   54          NaN     NaN     NaN     NaN
   55          NaN     NaN     NaN     NaN
   56          NaN     NaN     NaN     NaN
   57          NaN     NaN     NaN     NaN
   58          NaN     NaN     NaN     NaN
   59          NaN     NaN     NaN     NaN
   60          NaN     NaN     NaN     NaN
   61          NaN     NaN     NaN     NaN
   62          NaN     NaN     NaN     NaN
   63          NaN     NaN     NaN     NaN
   64          NaN     NaN     NaN     NaN
   65          NaN     NaN     NaN     NaN
--------------------------------------------------
tot            NaN     NaN     NaN     NaN



 magnetization (y)

# of ion       s       p       d       tot
------------------------------------------
    1          NaN     NaN     NaN     NaN
    2          NaN     NaN     NaN     NaN
    3          NaN     NaN     NaN     NaN
    4          NaN     NaN     NaN     NaN
    5          NaN     NaN     NaN     NaN
    6          NaN     NaN     NaN     NaN
    7          NaN     NaN     NaN     NaN
    8          NaN     NaN     NaN     NaN
    9          NaN     NaN     NaN     NaN
   10          NaN     NaN     NaN     NaN
   11          NaN     NaN     NaN     NaN
   12          NaN     NaN     NaN     NaN
   13          NaN     NaN     NaN     NaN
   14          NaN     NaN     NaN     NaN
   15          NaN     NaN     NaN     NaN
   16          NaN     NaN     NaN     NaN
   17          NaN     NaN     NaN     NaN
   18          NaN     NaN     NaN     NaN
   19          NaN     NaN     NaN     NaN
   20          NaN     NaN     NaN     NaN
   21          NaN     NaN     NaN     NaN
   22          NaN     NaN     NaN     NaN
   23          NaN     NaN     NaN     NaN
   24          NaN     NaN     NaN     NaN
   25          NaN     NaN     NaN     NaN
   26          NaN     NaN     NaN     NaN
   27          NaN     NaN     NaN     NaN
   28          NaN     NaN     NaN     NaN
   29          NaN     NaN     NaN     NaN
   30          NaN     NaN     NaN     NaN
   31          NaN     NaN     NaN     NaN
   32          NaN     NaN     NaN     NaN
   33          NaN     NaN     NaN     NaN
   34          NaN     NaN     NaN     NaN
   35          NaN     NaN     NaN     NaN
   36          NaN     NaN     NaN     NaN
   37          NaN     NaN     NaN     NaN
   38          NaN     NaN     NaN     NaN
   39          NaN     NaN     NaN     NaN
   40          NaN     NaN     NaN     NaN
   41          NaN     NaN     NaN     NaN
   42          NaN     NaN     NaN     NaN
   43          NaN     NaN     NaN     NaN
   44          NaN     NaN     NaN     NaN
   45          NaN     NaN     NaN     NaN
   46          NaN     NaN     NaN     NaN
   47          NaN     NaN     NaN     NaN
   48          NaN     NaN     NaN     NaN
   49          NaN     NaN     NaN     NaN
   50          NaN     NaN     NaN     NaN
   51          NaN     NaN     NaN     NaN
   52          NaN     NaN     NaN     NaN
   53          NaN     NaN     NaN     NaN
   54          NaN     NaN     NaN     NaN
   55          NaN     NaN     NaN     NaN
   56          NaN     NaN     NaN     NaN
   57          NaN     NaN     NaN     NaN
   58          NaN     NaN     NaN     NaN
   59          NaN     NaN     NaN     NaN
   60          NaN     NaN     NaN     NaN
   61          NaN     NaN     NaN     NaN
   62          NaN     NaN     NaN     NaN
   63          NaN     NaN     NaN     NaN
   64          NaN     NaN     NaN     NaN
   65          NaN     NaN     NaN     NaN
--------------------------------------------------
tot            NaN     NaN     NaN     NaN



 magnetization (z)

# of ion       s       p       d       tot
------------------------------------------
    1          NaN     NaN     NaN     NaN
    2          NaN     NaN     NaN     NaN
    3          NaN     NaN     NaN     NaN
    4          NaN     NaN     NaN     NaN
    5          NaN     NaN     NaN     NaN
    6          NaN     NaN     NaN     NaN
    7          NaN     NaN     NaN     NaN
    8          NaN     NaN     NaN     NaN
    9          NaN     NaN     NaN     NaN
   10          NaN     NaN     NaN     NaN
   11          NaN     NaN     NaN     NaN
