 vasp.5.4.4.18Apr17-6-g9f103f2a35 (build Apr  4 2022 10:17:17) complex           
 executed on        HPECrayEX-GNU date 2022.04.29  13:10:41
 running on 1024 total cores
 distrk:  each k-point on  512 cores,    2 groups
 distr:  one band on NCORES_PER_BAND=  32 cores,   16 groups


--------------------------------------------------------------------------------------------------------


 INCAR:
 POTCAR:    PAW_PBE Cd 06Sep2000                  
 POTCAR:    PAW_PBE Te 08Apr2002                  

 ----------------------------------------------------------------------------- 
|                                                                             |
|           W    W    AA    RRRRR   N    N  II  N    N   GGGG   !!!           |
|           W    W   A  A   R    R  NN   N  II  NN   N  G    G  !!!           |
|           W    W  A    A  R    R  N N  N  II  N N  N  G       !!!           |
|           W WW W  AAAAAA  RRRRR   N  N N  II  N  N N  G  GGG   !            |
|           WW  WW  A    A  R   R   N   NN  II  N   NN  G    G                |
|           W    W  A    A  R    R  N    N  II  N    N   GGGG   !!!           |
|                                                                             |
|      You have enabled k-point parallelism (KPAR>1).                         |
|      This developmental code was originally  written by Paul Kent at ORNL,  |
|      and carefully double checked in Vienna.                                |
|      GW as well as linear response parallelism added by Martijn Marsman     |
|      and Georg Kresse.                                                      |
|      Carefully verify results versus KPAR=1.                                |
|      Report problems to Paul Kent and Vienna.                               |
|                                                                             |
 ----------------------------------------------------------------------------- 

 POTCAR:    PAW_PBE Cd 06Sep2000                  
   VRHFIN =Cd : s2 d10                                                          
   LEXCH  = PE                                                                  
   EATOM  =  1293.1815 eV,   95.0462 Ry                                         
                                                                                
   TITEL  = PAW_PBE Cd 06Sep2000                                                
   LULTRA =        F    use ultrasoft PP ?                                      
   IUNSCR =        1    unscreen: 0-lin 1-nonlin 2-no                           
   RPACOR =    2.000    partial core radius                                     
   POMASS =  112.411; ZVAL   =   12.000    mass and valenz                      
   RCORE  =    2.300    outmost cutoff radius                                   
   RWIGS  =    2.980; RWIGS  =    1.577    wigner-seitz radius (au A)           
   ENMAX  =  274.336; ENMIN  =  205.752 eV                                      
   RCLOC  =    2.054    cutoff for local pot                                    
   LCOR   =        T    correct aug charges                                     
   LPAW   =        T    paw PP                                                  
   EAUG   =  456.106                                                            
   DEXC   =    0.000                                                            
   RMAX   =    2.358    core radius for proj-oper                               
   RAUG   =    1.300    factor for augmentation sphere                          
   RDEP   =    2.450    radius for radial grids                                 
   RDEPT  =    1.955    core radius for aug-charge                              
                                                                                
   Atomic configuration                                                         
   12 entries                                                                   
     n  l   j            E        occ.                                          
     1  0  0.50    -26519.7817   2.0000                                         
     2  0  0.50     -3936.9612   2.0000                                         
     2  1  1.50     -3532.2230   6.0000                                         
     3  0  0.50      -733.7908   2.0000                                         
     3  1  1.50      -601.0792   6.0000                                         
     3  2  2.50      -393.5307  10.0000                                         
     4  0  0.50      -105.8977   2.0000                                         
     4  1  1.50       -66.9488   6.0000                                         
     4  2  2.50       -11.7331  10.0000                                         
     5  0  0.50        -5.6592   2.0000                                         
     5  1  0.50        -1.3606   0.0000                                         
     4  3  2.50        -1.3606   0.0000                                         
   Description                                                                  
     l       E           TYP  RCUT    TYP  RCUT                                 
     2    -11.7331479     23  2.300                                             
     2    -13.0937305     23  2.300                                             
     0     -5.6591502     23  2.300                                             
     0     -1.5561433     23  2.300                                             
     1     -2.7211652     23  2.300                                             
     1      8.3548275     23  2.300                                             
  local pseudopotential read in
  partial core-charges read in
  partial kinetic energy density read in
  atomic valenz-charges read in
  non local Contribution for L=           2  read in
    real space projection operators read in
  non local Contribution for L=           2  read in
    real space projection operators read in
  non local Contribution for L=           0  read in
    real space projection operators read in
  non local Contribution for L=           0  read in
    real space projection operators read in
  non local Contribution for L=           1  read in
    real space projection operators read in
  non local Contribution for L=           1  read in
    real space projection operators read in
    PAW grid and wavefunctions read in

   number of l-projection  operators is LMAX  =           6
   number of lm-projection operators is LMMAX =          18

 POTCAR:    PAW_PBE Te 08Apr2002                  
   VRHFIN =Te: s2p4                                                             
   LEXCH  = PE                                                                  
   EATOM  =   223.2721 eV,   16.4100 Ry                                         
                                                                                
   TITEL  = PAW_PBE Te 08Apr2002                                                
   LULTRA =        F    use ultrasoft PP ?                                      
   IUNSCR =        1    unscreen: 0-lin 1-nonlin 2-no                           
   RPACOR =    2.200    partial core radius                                     
   POMASS =  127.600; ZVAL   =    6.000    mass and valenz                      
   RCORE  =    2.300    outmost cutoff radius                                   
   RWIGS  =    2.900; RWIGS  =    1.535    wigner-seitz radius (au A)           
   ENMAX  =  174.982; ENMIN  =  131.236 eV                                      
   ICORE  =        3    local potential                                         
   LCOR   =        T    correct aug charges                                     
   LPAW   =        T    paw PP                                                  
   EAUG   =  368.792                                                            
   DEXC   =    0.000                                                            
   RMAX   =    2.345    core radius for proj-oper                               
   RAUG   =    1.300    factor for augmentation sphere                          
   RDEP   =    2.397    radius for radial grids                                 
   RDEPT  =    2.174    core radius for aug-charge                              
                                                                                
   Atomic configuration                                                         
   13 entries                                                                   
     n  l   j            E        occ.                                          
     1  0  0.50    -31621.2075   2.0000                                         
     2  0  0.50     -4848.7941   2.0000                                         
     2  1  1.50     -4352.1960   6.0000                                         
     3  0  0.50      -964.9612   2.0000                                         
     3  1  1.50      -803.6179   6.0000                                         
     3  2  2.50      -559.8710  10.0000                                         
     4  0  0.50      -164.3522   2.0000                                         
     4  1  1.50      -114.3756   6.0000                                         
     4  2  2.50       -41.6483  10.0000                                         
     5  0  0.50       -15.1072   2.0000                                         
     5  1  0.50        -5.9526   4.0000                                         
     5  2  1.50        -5.4423   0.0000                                         
     4  3  2.50        -5.4423   0.0000                                         
   Description                                                                  
     l       E           TYP  RCUT    TYP  RCUT                                 
     0    -15.1072389     23  2.300                                             
     0    -16.4678215     23  2.300                                             
     1     -5.9526306     23  2.300                                             
     1     -2.4873968     23  2.300                                             
     2     -5.4423304     23  2.300                                             
     3     -1.3605826     23  2.300                                             
  local pseudopotential read in
  partial core-charges read in
  partial kinetic energy density read in
  atomic valenz-charges read in
  non local Contribution for L=           0  read in
    real space projection operators read in
  non local Contribution for L=           0  read in
    real space projection operators read in
  non local Contribution for L=           1  read in
    real space projection operators read in
  non local Contribution for L=           1  read in
    real space projection operators read in
  non local Contribution for L=           2  read in
    real space projection operators read in
    PAW grid and wavefunctions read in

   number of l-projection  operators is LMAX  =           5
   number of lm-projection operators is LMMAX =          13


 ----------------------------------------------------------------------------- 
|                                                                             |
|  ADVICE TO THIS USER RUNNING 'VASP/VAMP'   (HEAR YOUR MASTER'S VOICE ...):  |
|                                                                             |
|      You have a (more or less) 'large supercell' and for larger cells       |
|      it might be more efficient to use real space projection opertators     |
|      So try LREAL= Auto  in the INCAR   file.                               |
|      Mind:          For very  accurate calculation you might also keep the  |
|      reciprocal projection scheme          (i.e. LREAL=.FALSE.)             |
|                                                                             |
 ----------------------------------------------------------------------------- 

  PAW_PBE Cd 06Sep2000                  :
 energy of atom  1       EATOM=-1293.1815
 kinetic energy error for atom=    0.0084 (will be added to EATOM!!)
  PAW_PBE Te 08Apr2002                  :
 energy of atom  2       EATOM= -223.2721
 kinetic energy error for atom=    0.0008 (will be added to EATOM!!)


 POSCAR: Cd33 Te32                               
  positions in direct lattice
  No initial velocities read in
 exchange correlation table for  LEXCH =        8
   RHO(1)=    0.500       N(1)  =     2000
   RHO(2)=  100.500       N(2)  =     4000



--------------------------------------------------------------------------------------------------------


 ion  position               nearest neighbor table
   1  0.004  0.996  0.004-  44 2.79  35 2.93  54 2.93  65 2.93  33 2.94
   2  0.001  0.999  0.497-  55 2.82  34 2.82  64 2.82  45 2.84
   3  0.001  0.503  0.001-  63 2.82  56 2.82  37 2.82  42 2.84
   4  1.000  0.501  0.499-  57 2.82  62 2.82  36 2.82  43 2.84
   5  0.497  0.999  0.001-  39 2.82  50 2.82  61 2.82  48 2.84
   6  0.499  0.000  0.499-  38 2.82  51 2.82  60 2.82  49 2.84
   7  0.499  0.501  1.000-  41 2.82  59 2.82  52 2.82  46 2.84
   8  0.501  0.499  0.501-  47 2.82  40 2.83  53 2.83  58 2.83
   9  0.001  0.251  0.253-  54 2.82  34 2.82  62 2.82  42 2.84
  10  0.004  0.254  0.746-  43 2.79  35 2.93  55 2.93  63 2.93  33 2.94
  11  1.000  0.749  0.251-  56 2.82  64 2.82  36 2.82  44 2.84
  12  0.001  0.747  0.749-  65 2.82  57 2.82  37 2.82  45 2.84
  13  0.499  0.250  0.251-  38 2.82  50 2.82  58 2.82  46 2.84
  14  0.497  0.251  0.749-  39 2.82  51 2.82  59 2.82  47 2.84
  15  0.501  0.751  0.249-  48 2.82  40 2.83  52 2.83  60 2.83
  16  0.499  0.749  0.750-  41 2.82  61 2.82  53 2.82  49 2.84
  17  0.251  0.000  0.251-  34 2.82  50 2.82  60 2.82  44 2.84
  18  0.253  0.999  0.749-  35 2.82  51 2.82  61 2.82  45 2.84
  19  0.249  0.499  0.249-  42 2.82  36 2.83  52 2.83  58 2.83
  20  0.251  0.501  0.750-  37 2.82  59 2.82  53 2.82  43 2.84
  21  0.749  0.999  0.253-  54 2.82  38 2.82  64 2.82  48 2.84
  22  0.746  0.996  0.746-  49 2.79  39 2.93  55 2.93  65 2.93  33 2.94
  23  0.750  0.501  0.251-  56 2.82  62 2.82  40 2.82  46 2.84
  24  0.749  0.503  0.749-  63 2.82  57 2.82  41 2.82  47 2.84
  25  0.253  0.251  0.001-  35 2.82  50 2.82  59 2.82  42 2.84
  26  0.251  0.250  0.499-  34 2.82  51 2.82  58 2.82  43 2.84
  27  0.251  0.749  1.000-  37 2.82  61 2.82  52 2.82  44 2.84
  28  0.249  0.751  0.501-  45 2.82  36 2.83  53 2.83  60 2.83
  29  0.746  0.254  0.004-  46 2.79  39 2.93  54 2.93  63 2.93  33 2.94
  30  0.749  0.251  0.497-  55 2.82  38 2.82  62 2.82  47 2.84
  31  0.749  0.747  0.001-  65 2.82  56 2.82  41 2.82  48 2.84
  32  0.750  0.749  0.499-  57 2.82  64 2.82  40 2.82  49 2.84
  33  0.875  0.125  0.875-   1 2.94  10 2.94  22 2.94  29 2.94  35 3.37  39 3.37  54 3.37  55 3.37
                            63 3.37  65 3.37
  34  0.127  0.125  0.375-  17 2.82  26 2.82   2 2.82   9 2.82
  35  0.133  0.125  0.875-  18 2.82  25 2.82  10 2.93   1 2.93  33 3.37
  36  0.126  0.625  0.375-   4 2.82  11 2.82  19 2.83  28 2.83
  37  0.127  0.625  0.875-  20 2.82  27 2.82   3 2.82  12 2.82
  38  0.623  0.125  0.375-  13 2.82   6 2.82  21 2.82  30 2.82
  39  0.617  0.125  0.875-  14 2.82   5 2.82  22 2.93  29 2.93  33 3.37
  40  0.624  0.625  0.375-  23 2.82  32 2.82   8 2.83  15 2.83
  41  0.623  0.625  0.875-   7 2.82  16 2.82  31 2.82  24 2.82
  42  0.125  0.375  0.125-  19 2.82   9 2.84  25 2.84   3 2.84
  43  0.127  0.377  0.623-  10 2.79   4 2.84  26 2.84  20 2.84
  44  0.127  0.873  0.127-   1 2.79  11 2.84  17 2.84  27 2.84
  45  0.125  0.875  0.625-  28 2.82  18 2.84   2 2.84  12 2.84
  46  0.623  0.377  0.127-  29 2.79  13 2.84  23 2.84   7 2.84
  47  0.625  0.375  0.625-   8 2.82  14 2.84  24 2.84  30 2.84
  48  0.625  0.875  0.125-  15 2.82  21 2.84   5 2.84  31 2.84
  49  0.623  0.873  0.623-  22 2.79  32 2.84   6 2.84  16 2.84
  50  0.375  0.125  0.127-  17 2.82  13 2.82   5 2.82  25 2.82
  51  0.375  0.125  0.623-   6 2.82  26 2.82  18 2.82  14 2.82
  52  0.375  0.625  0.126-   7 2.82  27 2.82  19 2.83  15 2.83
  53  0.375  0.625  0.624-  16 2.82  20 2.82   8 2.83  28 2.83
  54  0.875  0.125  0.133-   9 2.82  21 2.82   1 2.93  29 2.93  33 3.37
  55  0.875  0.125  0.617-  30 2.82   2 2.82  22 2.93  10 2.93  33 3.37
  56  0.875  0.625  0.127-  11 2.82  23 2.82   3 2.82  31 2.82
  57  0.875  0.625  0.623-   4 2.82  32 2.82  12 2.82  24 2.82
  58  0.375  0.376  0.375-  26 2.82  13 2.82  19 2.83   8 2.83
  59  0.375  0.377  0.875-   7 2.82  20 2.82  14 2.82  25 2.82
  60  0.375  0.874  0.375-   6 2.82  17 2.82  15 2.83  28 2.83
  61  0.375  0.873  0.875-  16 2.82  27 2.82   5 2.82  18 2.82
  62  0.875  0.377  0.375-   4 2.82  23 2.82   9 2.82  30 2.82
  63  0.875  0.383  0.875-  24 2.82   3 2.82  10 2.93  29 2.93  33 3.37
  64  0.875  0.873  0.375-  11 2.82  32 2.82   2 2.82  21 2.82
  65  0.875  0.867  0.875-  12 2.82  31 2.82   1 2.93  22 2.93  33 3.37


IMPORTANT INFORMATION: All symmetrisations will be switched off!
NOSYMM: (Re-)initialisation of all symmetry stuff for point group C_1.



 KPOINTS: Automatically generated mesh            
  k-points in reciprocal lattice
Space group operators:
 irot       det(A)        alpha          n_x          n_y          n_z        tau_x        tau_y        tau_z
    1     1.000000     0.000000     1.000000     0.000000     0.000000     0.000000     0.000000     0.000000

 ----------------------------------------------------------------------------- 
|                                                                             |
|           W    W    AA    RRRRR   N    N  II  N    N   GGGG   !!!           |
|           W    W   A  A   R    R  NN   N  II  NN   N  G    G  !!!           |
|           W    W  A    A  R    R  N N  N  II  N N  N  G       !!!           |
|           W WW W  AAAAAA  RRRRR   N  N N  II  N  N N  G  GGG   !            |
|           WW  WW  A    A  R   R   N   NN  II  N   NN  G    G                |
|           W    W  A    A  R    R  N    N  II  N    N   GGGG   !!!           |
|                                                                             |
|      Your generating k-point grid is not commensurate to the symmetry       |
|      of the lattice.  This can cause   slow convergence with respect        |
|      to k-points for HF type calculations                                   |
|      suggested SOLUTIONS:                                                   |
|       ) if not already the case, use automatic k-point generation           |
|       ) shift your grid to Gamma (G) (e.g. required for hex or fcc lattice) |
|                                                                             |
 ----------------------------------------------------------------------------- 

 
 Subroutine IBZKPT_HF returns following result:
 ==============================================
 
 Found      8 k-points in 1st BZ
 the following      8 k-points will be used (e.g. in the exchange kernel)
 Following reciprocal coordinates:   # in IRBZ
  0.000000  0.000000  0.000000    0.12500000   1 t-inv F
  0.500000  0.000000  0.000000    0.12500000   2 t-inv F
  0.000000  0.500000  0.000000    0.12500000   3 t-inv F
  0.500000  0.500000  0.000000    0.12500000   4 t-inv F
  0.000000  0.000000  0.500000    0.12500000   5 t-inv F
  0.500000  0.000000  0.500000    0.12500000   6 t-inv F
  0.000000  0.500000  0.500000    0.12500000   7 t-inv F
  0.500000  0.500000  0.500000    0.12500000   8 t-inv F


--------------------------------------------------------------------------------------------------------




 Dimension of arrays:
   k-points           NKPTS =      8   k-points in BZ     NKDIM =      8   number of bands    NBANDS=    784
   number of dos      NEDOS =   2000   number of ions     NIONS =     65
   non local maximal  LDIM  =      6   non local SUM 2l+1 LMDIM =     18
   total plane-waves  NPLWV = 884736
   max r-space proj   IRMAX =      1   max aug-charges    IRDMAX= 183854
   dimension x,y,z NGX =    96 NGY =   96 NGZ =   96
   dimension x,y,z NGXF=   192 NGYF=  192 NGZF=  192
   support grid    NGXF=   384 NGYF=  384 NGZF=  384
   ions per type =              33  32
   NGX,Y,Z   is equivalent  to a cutoff of  12.20, 12.20, 12.20 a.u.
   NGXF,Y,Z  is equivalent  to a cutoff of  24.39, 24.39, 24.39 a.u.

 SYSTEM =  unknown system                          
 POSCAR =  Cd33 Te32                               

 Startparameter for this run:
   NWRITE =      2    write-flag & timer
   PREC   = accura    normal or accurate (medium, high low for compatibility)
   ISTART =      0    job   : 0-new  1-cont  2-samecut
   ICHARG =      1    charge: 1-file 2-atom 10-const
   ISPIN  =      1    spin polarized calculation?
   LNONCOLLINEAR =      T non collinear calculations
   LSORBIT =      T    spin-orbit coupling
   INIWAV =      1    electr: 0-lowe 1-rand  2-diag
   LASPH  =      T    aspherical Exc in radial PAW
   METAGGA=      F    non-selfconsistent MetaGGA calc.

 Electronic Relaxation 1
   ENCUT  =  450.0 eV  33.07 Ry    5.75 a.u.  22.64 22.64 22.64*2*pi/ulx,y,z
   ENINI  =  450.0     initial cutoff
   ENAUG  =  456.1 eV  augmentation charge cutoff
   NELM   =      6;   NELMIN=  2; NELMDL= -5     # of ELM steps 
   EDIFF  = 0.1E-05   stopping-criterion for ELM
   LREAL  =      F    real-space projection
   NLSPLINE    = F    spline interpolate recip. space projectors
   LCOMPAT=      F    compatible to vasp.4.4
   GGA_COMPAT  = T    GGA compatible to vasp.4.4-vasp.4.6
   LMAXPAW     = -100 max onsite density
   LMAXMIX     =    2 max onsite mixed and CHGCAR
   VOSKOWN=      0    Vosko Wilk Nusair interpolation
   ROPT   =    0.00000   0.00000
 Ionic relaxation
   EDIFFG = -.1E-01   stopping-criterion for IOM
   NSW    =      0    number of steps for IOM
   NBLOCK =      1;   KBLOCK =      1    inner block; outer block 
   IBRION =     -1    ionic relax: 0-MD 1-quasi-New 2-CG
   NFREE  =      0    steps in history (QN), initial steepest desc. (CG)
   ISIF   =      2    stress and relaxation
   IWAVPR =     10    prediction:  0-non 1-charg 2-wave 3-comb
   ISYM   =      0    0-nonsym 1-usesym 2-fastsym
   LCORR  =      T    Harris-Foulkes like correction to forces

   POTIM  = 0.5000    time-step for ionic-motion
   TEIN   =    0.0    initial temperature
   TEBEG  =    0.0;   TEEND  =   0.0 temperature during run
   SMASS  =  -3.00    Nose mass-parameter (am)
   estimated Nose-frequenzy (Omega)   =  0.10E-29 period in steps =****** mass=  -0.391E-26a.u.
   SCALEE = 1.0000    scale energy and forces
   NPACO  =    256;   APACO  = 16.0  distance and # of slots for P.C.
   PSTRESS=    0.0 pullay stress

  Mass of Ions in am
   POMASS = 112.41127.60
  Ionic Valenz
   ZVAL   =  12.00  6.00
  Atomic Wigner-Seitz radii
   RWIGS  =  -1.00 -1.00
  virtual crystal weights 
   VCA    =   1.00  1.00
   NELECT =     588.0000    total number of electrons
   NUPDOWN=      -1.0000    fix difference up-down

 DOS related values:
   EMIN   =  10.00;   EMAX   =-10.00  energy-range for DOS
   EFERMI =   0.00
   ISMEAR =     0;   SIGMA  =   0.05  broadening in eV -4-tet -1-fermi 0-gaus

 Electronic relaxation 2 (details)
   IALGO  =     58    algorithm
   LDIAG  =      T    sub-space diagonalisation (order eigenvalues)
   LSUBROT=      F    optimize rotation matrix (better conditioning)
   TURBO    =      0    0=normal 1=particle mesh
   IRESTART =      0    0=no restart 2=restart with 2 vectors
   NREBOOT  =      0    no. of reboots
   NMIN     =      0    reboot dimension
   EREF     =   0.00    reference energy to select bands
   IMIX   =      4    mixing-type and parameters
     AMIX     =   0.40;   BMIX     =  1.00
     AMIX_MAG =   1.60;   BMIX_MAG =  1.00
     AMIN     =   0.10
     WC   =   100.;   INIMIX=   1;  MIXPRE=   1;  MAXMIX= -45

 Intra band minimization:
   WEIMIN = 0.0000     energy-eigenvalue tresh-hold
   EBREAK =  0.32E-09  absolut break condition
   DEPER  =   0.30     relativ break condition  

   TIME   =   0.40     timestep for ELM

  volume/ion in A,a.u.               =      34.48       232.69
  Fermi-wavevector in a.u.,A,eV,Ry     =   1.048017  1.980464 14.943809  1.098339
  Thomas-Fermi vector in A             =   2.182921

 Write flags
   LWAVE        =      T    write WAVECAR
   LDOWNSAMPLE  =      F    k-point downsampling of WAVECAR
   LCHARG       =      T    write CHGCAR
   LVTOT        =      F    write LOCPOT, total local potential
   LVHAR        =      T    write LOCPOT, Hartree potential only
   LELF         =      F    write electronic localiz. function (ELF)
   LORBIT       =     11    0 simple, 1 ext, 2 COOP (PROOUT), +10 PAW based schemes


 Dipole corrections
   LMONO  =      F    monopole corrections only (constant potential shift)
   LDIPOL =      F    correct potential (dipole corrections)
   IDIPOL =      0    1-x, 2-y, 3-z, 4-all directions 
   EPSILON=  1.0000000 bulk dielectric constant

 Exchange correlation treatment:
   GGA     =    --    GGA type
   LEXCH   =     8    internal setting for exchange type
   VOSKOWN=      0    Vosko Wilk Nusair interpolation
   EXXOEP  =     0    0=HF, 1=EXX-LHF (local Hartree Fock) 2=EXX OEP
   LHFCALC =     T    Hartree Fock is set to
   LSYMGRAD=     F    symmetrize gradient (conserves proper symmetry)
   PRECFOCK=fast      Normal, Fast or Accurate (Low or Medium for compatibility)
   LRHFCALC=     F    long range Hartree Fock
   LRSCOR  =     F    long range correlation only (use DFT for short range part)
   LTHOMAS =     F    Thomas Fermi screening in HF
   LMODELHF=     F    short range full HF, long range fraction AEXX
   ENCUT4O =  -1.0   cutoff for four orbital integrals eV
   LMAXFOCK=     4    L truncation for augmentation on plane wave grid
   LMAXFOCKAE=  -1    L truncation for all-electron charge restoration on plane wave grid
   NMAXFOCKAE=   1    number of basis functions for all-electron charge restoration
   LFOCKAEDFT=     F  apply the AE augmentation even for DFT
   NKREDX  =     1    reduce k-point grid by
   NKREDY  =     1    reduce k-point grid by
   NKREDZ  =     1    reduce k-point grid by
   SHIFTRED=     F    shift reduced grid of Gamma
   HFKIDENT=     F    idential grid for each k-point
   ODDONLY =     F    use only odd q-grid points
   EVENONLY=     F    use only even q-grid points
   HFALPHA =   -1.0000 decay constant for conv. correction
   MCALPHA =    0.0000 extent of test-charge in conv. correction in multipole expansion
   AEXX    =    0.2500 exact exchange contribution
   HFSCREEN=    0.2000 screening length (either q_TF or 0.3 A-1)
   HFSCREENC=   0.2000 screening length for correlation (either q_TF or 0.3 A-1)
   HFRCUT  =    0.0000 spherical cutoff for potential kernel
   ALDAX   =    0.7500 LDA exchange part
   AGGAX   =    0.7500 GGA exchange part
   ALDAC   =    1.0000 LDA correlation
   AGGAC   =    1.0000 GGA correlation
   ENCUTFOCK=  -1.0 apply spherical cutoff to Coloumb kernel
   NBANDSGWLOW=     1    first orbital included in HF term
   NBLOCK_FOCK=    64    blocking factor in FOCK_ACC
 Linear response parameters
   LEPSILON=     F    determine dielectric tensor
   LRPA    =     F    only Hartree local field effects (RPA)
   LNABLA  =     F    use nabla operator in PAW spheres
   LVEL    =     F    velocity operator in full k-point grid
   LINTERFAST=   F  fast interpolation
   KINTER  =     0    interpolate to denser k-point grid
   CSHIFT  =0.1000    complex shift for real part using Kramers Kronig
   OMEGAMAX=  -1.0    maximum frequency
   DEG_THRESHOLD= 0.2000000E-02 threshold for treating states as degnerate
   RTIME   =   -0.100 relaxation time in fs
  (WPLASMAI=    0.000 imaginary part of plasma frequency in eV, 0.658/RTIME)
   DFIELD  = 0.0000000 0.0000000 0.0000000 field for delta impulse in time

 Orbital magnetization related:
   ORBITALMAG=     F  switch on orbital magnetization
   LCHIMAG   =     F  perturbation theory with respect to B field
   DQ        =  0.001000  dq finite difference perturbation B field
   LLRAUG    =     F  two centre corrections for induced B field



--------------------------------------------------------------------------------------------------------


 Static calculation
 charge density and potential will be updated during run
 non collinear spin polarized calculation
 Conjugate gradient for all bands (Freysoldt, et al. PRB 79, 241103 (2009))
 preconditioned conjugated gradient                                        
 perform sub-space diagonalisation
    before iterative eigenvector-optimisation
 modified Broyden-mixing scheme, WC =      100.0
 initial mixing is a Kerker type mixing with AMIX =  0.4000 and BMIX =      1.0000
 Hartree-type preconditioning will be used
 using additional bands          490
 reciprocal scheme for non local part
 use partial core corrections
 no Harris-corrections to forces 
 use gradient corrections 
 use of overlap-Matrix (Vanderbilt PP)
 Gauss-broadening in eV      SIGMA  =   0.05


--------------------------------------------------------------------------------------------------------


  energy-cutoff  :      450.00
  volume of cell :     2241.29
      direct lattice vectors                 reciprocal lattice vectors
    13.086768000  0.000000000  0.000000000     0.076413061  0.000000000  0.000000000
     0.000000000 13.086768000  0.000000000     0.000000000  0.076413061  0.000000000
     0.000000000  0.000000000 13.086768000     0.000000000  0.000000000  0.076413061

  length of vectors
    13.086768000 13.086768000 13.086768000     0.076413061  0.076413061  0.076413061



 k-points in units of 2pi/SCALE and weight: Automatically generated mesh            
   0.00000000  0.00000000  0.00000000       0.125
   0.03820653  0.00000000  0.00000000       0.125
   0.00000000  0.03820653  0.00000000       0.125
   0.03820653  0.03820653  0.00000000       0.125
   0.00000000  0.00000000  0.03820653       0.125
   0.03820653  0.00000000  0.03820653       0.125
   0.00000000  0.03820653  0.03820653       0.125
   0.03820653  0.03820653  0.03820653       0.125

 k-points in reciprocal lattice and weights: Automatically generated mesh            
   0.00000000  0.00000000  0.00000000       0.125
   0.50000000  0.00000000  0.00000000       0.125
   0.00000000  0.50000000  0.00000000       0.125
   0.50000000  0.50000000  0.00000000       0.125
   0.00000000  0.00000000  0.50000000       0.125
   0.50000000  0.00000000  0.50000000       0.125
   0.00000000  0.50000000  0.50000000       0.125
   0.50000000  0.50000000  0.50000000       0.125

 position of ions in fractional coordinates (direct lattice) 
   0.00448500  0.99551500  0.00448500
   0.00124700  0.99875300  0.49695900
   0.00124700  0.50304100  0.00124700
   0.99962500  0.50121800  0.49878200
   0.49695900  0.99875300  0.00124700
   0.49878100  0.00037500  0.49878100
   0.49878100  0.50121900  0.99962500
   0.50052800  0.49947200  0.50052800
   0.00124700  0.25124700  0.25304000
   0.00448600  0.25448500  0.74551500
   0.99962500  0.74878200  0.25121800
   0.00124700  0.74695900  0.74875300
   0.49878200  0.24962500  0.25121900
   0.49696000  0.25124700  0.74875300
   0.50052800  0.75052800  0.24947200
   0.49878100  0.74878100  0.75037500
   0.25121900  0.00037500  0.25121900
   0.25304000  0.99875300  0.74875300
   0.24947200  0.49947200  0.24947200
   0.25121900  0.50121900  0.75037500
   0.74875300  0.99875300  0.25304000
   0.74551400  0.99551500  0.74551500
   0.75037500  0.50121900  0.25121900
   0.74875300  0.50304000  0.74875300
   0.25304000  0.25124700  0.00124700
   0.25121900  0.24962500  0.49878100
   0.25121900  0.74878100  0.99962500
   0.24947200  0.75052800  0.50052800
   0.74551400  0.25448500  0.00448500
   0.74875300  0.25124700  0.49696000
   0.74875300  0.74695900  0.00124700
   0.75037500  0.74878200  0.49878200
   0.87500000  0.12500000  0.87500000
   0.12665600  0.12500000  0.37500000
   0.13277900  0.12500000  0.87500000
   0.12589200  0.62500000  0.37500000
   0.12665600  0.62500000  0.87500000
   0.62334400  0.12500000  0.37500000
   0.61722100  0.12500000  0.87500000
   0.62410800  0.62500000  0.37500000
   0.62334400  0.62500000  0.87500000
   0.12484800  0.37484800  0.12484800
   0.12748800  0.37748800  0.62251200
   0.12748800  0.87251200  0.12748800
   0.12484800  0.87515200  0.62515200
   0.62251200  0.37748800  0.12748800
   0.62515200  0.37484800  0.62515200
   0.62515200  0.87515200  0.12484800
   0.62251200  0.87251200  0.62251200
   0.37500000  0.12500000  0.12665600
   0.37500000  0.12500000  0.62334400
   0.37500000  0.62500000  0.12589200
   0.37500000  0.62500000  0.62410800
   0.87500000  0.12500000  0.13277900
   0.87500000  0.12500000  0.61722100
   0.87500000  0.62500000  0.12665600
   0.87500000  0.62500000  0.62334400
   0.37500000  0.37589200  0.37500000
   0.37500000  0.37665600  0.87500000
   0.37500000  0.87410800  0.37500000
   0.37500000  0.87334400  0.87500000
   0.87500000  0.37665600  0.37500000
   0.87500000  0.38277900  0.87500000
   0.87500000  0.87334400  0.37500000
   0.87500000  0.86722100  0.87500000

 position of ions in cartesian coordinates  (Angst):
   0.05869415 13.02807385  0.05869415
   0.01631920 13.07044880  6.50358714
   0.01631920  6.58318086  0.01631920
  13.08186046  6.55932368  6.52744432
   6.50358714 13.07044880  0.01631920
   6.52743123  0.00490754  6.52743123
   6.52743123  6.55933677 13.08186046
   6.55029381  6.53647419  6.55029381
   0.01631920  3.28801120  3.31147577
   0.05870724  3.33038615  9.75638185
  13.08186046  9.79913632  3.28763168
   0.01631920  9.77527914  9.79875680
   6.52744432  3.26678446  3.28764477
   6.50360023  3.28801120  9.79875680
   6.55029381  9.82198581  3.26478219
   6.52743123  9.79912323  9.81998354
   3.28764477  0.00490754  3.28764477
   3.31147577 13.07044880  9.79875680
   3.26478219  6.53647419  3.26478219
   3.28764477  6.55933677  9.81998354
   9.79875680 13.07044880  3.31147577
   9.75636876 13.02807385  9.75638185
   9.81998354  6.55933677  3.28764477
   9.79875680  6.58316777  9.79875680
   3.31147577  3.28801120  0.01631920
   3.28764477  3.26678446  6.52743123
   3.28764477  9.79912323 13.08186046
   3.26478219  9.82198581  6.55029381
   9.75636876  3.33038615  0.05869415
   9.79875680  3.28801120  6.50360023
   9.79875680  9.77527914  0.01631920
   9.81998354  9.79913632  6.52744432
  11.45092200  1.63584600 11.45092200
   1.65751769  1.63584600  4.90753800
   1.73764797  1.63584600 11.45092200
   1.64751940  8.17923000  4.90753800
   1.65751769  8.17923000 11.45092200
   8.15755831  1.63584600  4.90753800
   8.07742803  1.63584600 11.45092200
   8.16755660  8.17923000  4.90753800
   8.15755831  8.17923000 11.45092200
   1.63385681  4.90554881  1.63385681
   1.66840588  4.94009788  8.14667012
   1.66840588 11.41836212  1.66840588
   1.63385681 11.45291119  8.18121919
   8.14667012  4.94009788  1.66840588
   8.18121919  4.90554881  8.18121919
   8.18121919 11.45291119  1.63385681
   8.14667012 11.41836212  8.14667012
   4.90753800  1.63584600  1.65751769
   4.90753800  1.63584600  8.15755831
   4.90753800  8.17923000  1.64751940
   4.90753800  8.17923000  8.16755660
  11.45092200  1.63584600  1.73764797
  11.45092200  1.63584600  8.07742803
  11.45092200  8.17923000  1.65751769
  11.45092200  8.17923000  8.15755831
   4.90753800  4.91921140  4.90753800
   4.90753800  4.92920969 11.45092200
   4.90753800 11.43924860  4.90753800
   4.90753800 11.42925031 11.45092200
  11.45092200  4.92920969  4.90753800
  11.45092200  5.00933997 11.45092200
  11.45092200 11.42925031  4.90753800
  11.45092200 11.34912003 11.45092200

 Euler angles ALPHA=     0.0000000  BETA=     0.0000000

 transformation matrix from SAXIS to cartesian coordinates
 ---------------------------------------------------------
     1.0000000 m_x    -0.0000000 m_y     0.0000000 m_z
     0.0000000 m_x     1.0000000 m_y     0.0000000 m_z
    -0.0000000 m_x     0.0000000 m_y     1.0000000 m_z

 transformation matrix from cartesian coordinates to SAXIS
 ---------------------------------------------------------
     1.0000000 m_x     0.0000000 m_y    -0.0000000 m_z
    -0.0000000 m_x     1.0000000 m_y     0.0000000 m_z
     0.0000000 m_x     0.0000000 m_y     1.0000000 m_z




--------------------------------------------------------------------------------------------------------


 k-point  1 :   0.0000 0.0000 0.0000  plane waves:   97002
 k-point  2 :   0.5000 0.0000 0.0000  plane waves:   97356
 k-point  3 :   0.0000 0.5000 0.0000  plane waves:   97356
 k-point  4 :   0.5000 0.5000 0.0000  plane waves:   96960
 k-point  5 :   0.0000 0.0000 0.5000  plane waves:   97356
 k-point  6 :   0.5000 0.0000 0.5000  plane waves:   96960
 k-point  7 :   0.0000 0.5000 0.5000  plane waves:   96960
 k-point  8 :   0.5000 0.5000 0.5000  plane waves:   96832

 maximum and minimum number of plane-waves per node :      3116     2976

 maximum number of plane-waves:     97356
 maximum index in each direction: 
   IXMAX=   22   IYMAX=   22   IZMAX=   22
   IXMIN=  -23   IYMIN=  -23   IZMIN=  -23


 parallel 3D FFT for wavefunctions:
    minimum data exchange during FFTs selected (reduces bandwidth)
 parallel 3D FFT for charge:
    minimum data exchange during FFTs selected (reduces bandwidth)


 FFT grid for exact exchange (Hartree Fock) 
  NGX = 48; NGY = 48; NGZ = 48


 Radii for the augmentation spheres in the non-local exchange
 for species   1 augmentation radius   1.444 (default was   1.070)
       energy cutoff for augmentation   1800.0
 for species   2 augmentation radius   1.606 (default was   1.190)
       energy cutoff for augmentation   1800.0

 real space projection operators:
  total allocation   :       9375.20 KBytes
  max/ min on nodes  :        432.62        141.21

 Maximum index for augmentation-charges in exchange           97
  SETUP_FOCK is finished

 total amount of memory used by VASP MPI-rank0   116355. kBytes
=======================================================================

   base      :      30000. kBytes
   nonl-proj :       5136. kBytes
   fftplans  :       6884. kBytes
   grid      :      12386. kBytes
   one-center:        186. kBytes
   HF        :        129. kBytes
   nonlr-proj:       1424. kBytes
   wavefun   :      60210. kBytes

     INWAV:  cpu time    0.0000: real time    0.0000
 Broyden mixing: mesh for mixing (old mesh)
   NGX = 45   NGY = 45   NGZ = 45
  (NGX  =192   NGY  =192   NGZ  =192)
  gives a total of  91125 points

 initial charge density was supplied:
 charge density of overlapping atoms calculated
 number of electron     588.0000000 magnetization      65.0000000     65.0000000     65.0000000
 keeping initial charge density in first step


--------------------------------------------------------------------------------------------------------


 Maximum index for augmentation-charges         3093 (set IRDMAX)


--------------------------------------------------------------------------------------------------------


 First call to EWALD:  gamma=   0.135
 Maximum number of real-space cells 3x 3x 3
 Maximum number of reciprocal cells 3x 3x 3

    FEWALD:  cpu time    0.0099: real time    0.0099


--------------------------------------- Iteration      1(   1)  ---------------------------------------


    POTLOK:  cpu time    0.2524: real time    0.2518
    SETDIJ:  cpu time    1.3321: real time    1.3298
    TRIAL :  cpu time    5.2010: real time    5.2523
    CORREC:  cpu time    0.0015: real time    0.0015
    --------------------------------------------
      LOOP:  cpu time    6.8400: real time    6.8881

 eigenvalue-minimisations  : 12544
 total energy-change (2. order) : 0.4600553E+04  (-0.2545669E+05)
 number of electron     588.0000000 magnetization      65.0000000     65.0000000     65.0000000
 augmentation part      588.0000000 magnetization      65.0000000     65.0000000     65.0000000

 Free energy of the ion-electron system (eV)
  ---------------------------------------------------
  alpha Z        PSCENC =      1642.45118531
  Ewald energy   TEWEN  =    -33940.17512420
  -Hartree energ DENC   =    -17077.89199325
  -exchange      EXHF   =         0.00000000
  -V(xc)+E(xc)   XCENC  =      -617.56595420
  PAW double counting   =     46020.13618675   -43994.38451620
  entropy T*S    EENTRO =        -0.03157993
  eigenvalues    EBANDS =      2818.58967885
  atomic energy  EATOM  =     49749.42546356
  ---------------------------------------------------
  free energy    TOTEN  =      4600.55334670 eV

  energy without entropy =     4600.58492663  energy(sigma->0) =     4600.56913667
  exchange ACFDT corr.  =         0.00000000  see jH, gK, PRB 81, 115126


--------------------------------------------------------------------------------------------------------




--------------------------------------- Iteration      1(   2)  ---------------------------------------


    TRIAL :  cpu time    5.4983: real time    5.4945
    CORREC:  cpu time    0.0016: real time    0.0016
    --------------------------------------------
      LOOP:  cpu time    5.5053: real time    5.5097

 eigenvalue-minimisations  : 13680
 total energy-change (2. order) :-0.3424210E+04  (-0.3262216E+04)
 number of electron     588.0000000 magnetization      65.0000000     65.0000000     65.0000000
 augmentation part      588.0000000 magnetization      65.0000000     65.0000000     65.0000000

 Free energy of the ion-electron system (eV)
  ---------------------------------------------------
  alpha Z        PSCENC =      1642.45118531
  Ewald energy   TEWEN  =    -33940.17512420
  -Hartree energ DENC   =    -17077.89199325
  -exchange      EXHF   =         0.00000000
  -V(xc)+E(xc)   XCENC  =      -617.56595420
  PAW double counting   =     46020.13618675   -43994.38451620
  entropy T*S    EENTRO =        -0.01229983
  eigenvalues    EBANDS =      -605.63998564
  atomic energy  EATOM  =     49749.42546356
  ---------------------------------------------------
  free energy    TOTEN  =      1176.34296231 eV

  energy without entropy =     1176.35526214  energy(sigma->0) =     1176.34911223
  exchange ACFDT corr.  =         0.00000000  see jH, gK, PRB 81, 115126


--------------------------------------------------------------------------------------------------------




--------------------------------------- Iteration      1(   3)  ---------------------------------------


    TRIAL :  cpu time    5.7277: real time    5.7242
    CORREC:  cpu time    0.0016: real time    0.0016
    --------------------------------------------
      LOOP:  cpu time    5.7340: real time    5.7386

 eigenvalue-minimisations  : 14432
 total energy-change (2. order) :-0.2293884E+03  (-0.2267235E+03)
 number of electron     588.0000000 magnetization      65.0000000     65.0000000     65.0000000
 augmentation part      588.0000000 magnetization      65.0000000     65.0000000     65.0000000

 Free energy of the ion-electron system (eV)
  ---------------------------------------------------
  alpha Z        PSCENC =      1642.45118531
  Ewald energy   TEWEN  =    -33940.17512420
  -Hartree energ DENC   =    -17077.89199325
  -exchange      EXHF   =         0.00000000
  -V(xc)+E(xc)   XCENC  =      -617.56595420
  PAW double counting   =     46020.13618675   -43994.38451620
  entropy T*S    EENTRO =        -0.01253711
  eigenvalues    EBANDS =      -835.02810294
  atomic energy  EATOM  =     49749.42546356
  ---------------------------------------------------
  free energy    TOTEN  =       946.95460774 eV

  energy without entropy =      946.96714484  energy(sigma->0) =      946.96087629
  exchange ACFDT corr.  =         0.00000000  see jH, gK, PRB 81, 115126


--------------------------------------------------------------------------------------------------------




--------------------------------------- Iteration      1(   4)  ---------------------------------------


    TRIAL :  cpu time    5.7561: real time    5.7502
    CORREC:  cpu time    0.0019: real time    0.0019
    --------------------------------------------
      LOOP:  cpu time    5.7618: real time    5.7649

 eigenvalue-minimisations  : 14512
 total energy-change (2. order) :-0.5264115E+01  (-0.5250783E+01)
 number of electron     588.0000000 magnetization      65.0000000     65.0000000     65.0000000
 augmentation part      588.0000000 magnetization      65.0000000     65.0000000     65.0000000

 Free energy of the ion-electron system (eV)
  ---------------------------------------------------
  alpha Z        PSCENC =      1642.45118531
  Ewald energy   TEWEN  =    -33940.17512420
  -Hartree energ DENC   =    -17077.89199325
  -exchange      EXHF   =         0.00000000
  -V(xc)+E(xc)   XCENC  =      -617.56595420
  PAW double counting   =     46020.13618675   -43994.38451620
  entropy T*S    EENTRO =        -0.01278462
  eigenvalues    EBANDS =      -840.29197014
  atomic energy  EATOM  =     49749.42546356
  ---------------------------------------------------
  free energy    TOTEN  =       941.69049302 eV

  energy without entropy =      941.70327764  energy(sigma->0) =      941.69688533
  exchange ACFDT corr.  =         0.00000000  see jH, gK, PRB 81, 115126


--------------------------------------------------------------------------------------------------------




--------------------------------------- Iteration      1(   5)  ---------------------------------------


    TRIAL :  cpu time    6.0645: real time    6.0604
    CORREC:  cpu time    0.0017: real time    0.0017
    CHARGE:  cpu time    0.2915: real time    0.2910
    --------------------------------------------
      LOOP:  cpu time    6.3631: real time    6.3724

 eigenvalue-minimisations  : 15488
 total energy-change (2. order) :-0.1006424E+00  (-0.1004584E+00)
 number of electron     588.0000006 magnetization       0.6809623      0.6809538      0.6809591
 augmentation part      145.5183897 magnetization       0.5828449      0.5827706      0.5828464

 Free energy of the ion-electron system (eV)
  ---------------------------------------------------
  alpha Z        PSCENC =      1642.45118531
  Ewald energy   TEWEN  =    -33940.17512420
  -Hartree energ DENC   =    -17077.89199325
  -exchange      EXHF   =         0.00000000
  -V(xc)+E(xc)   XCENC  =      -617.56595420
  PAW double counting   =     46020.13618675   -43994.38451620
  entropy T*S    EENTRO =        -0.01278142
  eigenvalues    EBANDS =      -840.39261570
  atomic energy  EATOM  =     49749.42546356
  ---------------------------------------------------
  free energy    TOTEN  =       941.58985066 eV

  energy without entropy =      941.60263208  energy(sigma->0) =      941.59624137
  exchange ACFDT corr.  =         0.00000000  see jH, gK, PRB 81, 115126


--------------------------------------------------------------------------------------------------------




--------------------------------------- Iteration      1(   6)  ---------------------------------------


    POTLOK:  cpu time    0.2391: real time    0.2387
    SETDIJ:  cpu time    1.3286: real time    1.3270
    TRIAL :  cpu time  532.9711: real time  532.6433
    CORREC:  cpu time 2142.9272: real time 2141.9743
    EDDIAG:  cpu time  532.9112: real time  532.6774
    CHARGE:  cpu time    0.2881: real time    0.2872
    --------------------------------------------
      LOOP:  cpu time 3210.6729: real time 3209.1637

 eigenvalue-minimisations  :     0
 total energy-change (2. order) :-0.1090360E+04  (-0.9691579E+15)
 number of electron     588.0000007 magnetization       0.5305052      0.5643735      0.4961827
 augmentation part      180.4836293 magnetization      -0.0092000     -0.0406799     -0.0386006

 Free energy of the ion-electron system (eV)
  ---------------------------------------------------
  alpha Z        PSCENC =      1642.45118531
  Ewald energy   TEWEN  =    -33940.17512420
  -Hartree energ DENC   =    -15675.20879360
  -exchange      EXHF   =      1215.91889034
  -V(xc)+E(xc)   XCENC  =      -655.55556347
  PAW double counting   =    120191.55682752  -118103.17461843
  entropy T*S    EENTRO =        -0.00008869
  eigenvalues    EBANDS =     -4463.35028728
  atomic energy  EATOM  =     49749.42546356
  ---------------------------------------------------
  free energy    TOTEN  =      -148.76968201 eV

  energy without entropy =     -148.76959332  energy(sigma->0) =     -148.76963766
  exchange ACFDT corr.  =        -0.01688496  see jH, gK, PRB 81, 115126


--------------------------------------------------------------------------------------------------------


  average scaling for gradient   0.9499


 average (electrostatic) potential at core
  the test charge radii are     1.0698  1.1897
  (the norm of the test charge is              1.0000)
       1 -10.6574       2 -13.9582       3 -13.9291       4 -14.6412       5 -13.9055
       6 -14.6789       7 -14.7108       8 -15.3172       9 -13.9223      10 -10.6704
      11 -14.6906      12 -13.9466      13 -14.7024      14 -13.8917      15 -15.3411
      16 -14.6976      17 -14.7115      18 -13.8874      19 -15.2984      20 -14.7080
      21 -13.8874      22 -10.6762      23 -14.7148      24 -13.8941      25 -13.8818
      26 -14.7070      27 -14.7085      28 -15.3295      29 -10.7048      30 -13.8781
      31 -13.8945      32 -14.7004      33  -5.1876      34 -89.5465      35 -86.7535
      36 -90.3961      37 -89.5528      38 -89.5320      39 -86.7816      40 -90.3924
      41 -89.5467      42 -89.0466      43 -89.0786      44 -89.0763      45 -89.1313
      46 -89.0667      47 -89.1120      48 -89.1201      49 -88.9904      50 -89.5423
      51 -89.5474      52 -90.4026      53 -90.4107      54 -86.7701      55 -86.7623
      56 -89.5596      57 -89.5495      58 -90.3824      59 -89.5549      60 -90.3915
      61 -89.5602      62 -89.5380      63 -86.7865      64 -89.6046      65 -86.7641



 E-fermi :   2.7003     XC(G=0):  -7.3038     alpha+bet : -7.2837


 k-point     1 :       0.0000    0.0000    0.0000
  band No.  band energies     occupation 
      1     -11.3162      1.00000
      2     -11.3131      1.00000
      3     -11.3086      1.00000
      4     -11.3008      1.00000
      5     -11.2936      1.00000
      6     -11.2871      1.00000
      7     -11.2805      1.00000
      8     -11.2742      1.00000
      9     -11.2684      1.00000
     10     -11.2157      1.00000
     11     -11.1774      1.00000
     12     -11.1428      1.00000
     13     -10.5834      1.00000
     14     -10.5642      1.00000
     15     -10.5494      1.00000
     16     -10.5416      1.00000
     17     -10.5343      1.00000
     18     -10.5327      1.00000
     19     -10.5247      1.00000
     20     -10.5211      1.00000
     21     -10.5190      1.00000
     22     -10.5140      1.00000
     23     -10.5112      1.00000
     24     -10.5081      1.00000
     25     -10.5063      1.00000
     26     -10.4985      1.00000
     27     -10.4924      1.00000
     28     -10.4900      1.00000
     29     -10.4720      1.00000
     30     -10.4659      1.00000
     31     -10.4591      1.00000
     32     -10.4194      1.00000
     33     -10.4014      1.00000
     34     -10.3019      1.00000
     35     -10.2761      1.00000
     36     -10.2488      1.00000
     37     -10.2085      1.00000
     38     -10.1876      1.00000
     39     -10.1640      1.00000
     40     -10.1583      1.00000
     41     -10.1494      1.00000
     42     -10.1437      1.00000
     43     -10.1327      1.00000
     44     -10.1186      1.00000
     45     -10.1092      1.00000
     46     -10.0484      1.00000
     47     -10.0407      1.00000
     48     -10.0026      1.00000
     49      -9.9607      1.00000
     50      -8.9973      1.00000
     51      -8.7566      1.00000
     52      -8.4450      1.00000
     53      -8.3628      1.00000
     54      -8.2379      1.00000
     55      -8.1334      1.00000
     56      -8.1013      1.00000
     57      -8.0766      1.00000
     58      -8.0655      1.00000
     59      -8.0637      1.00000
     60      -7.9740      1.00000
     61      -7.9300      1.00000
     62      -6.8049      1.00000
     63      -6.4267      1.00000
     64      -2.3337      1.00000
     65      -2.3162      1.00000
     66      -2.2745      1.00000
     67      -2.2392      1.00000
     68      -2.2190      1.00000
     69      -2.1821      1.00000
     70      -2.1175      1.00000
     71      -2.0919      1.00000
     72      -2.0651      1.00000
     73      -2.0217      1.00000
     74      -1.9375      1.00000
     75      -1.8800      1.00000
     76      -1.8113      1.00000
     77      -1.7807      1.00000
     78      -1.7541      1.00000
     79      -1.7034      1.00000
     80      -1.6904      1.00000
     81      -1.6696      1.00000
     82      -1.6636      1.00000
     83      -1.6265      1.00000
     84      -1.5980      1.00000
     85      -1.5679      1.00000
     86      -1.5569      1.00000
     87      -1.5313      1.00000
     88      -1.5246      1.00000
     89      -1.5031      1.00000
     90      -1.4910      1.00000
     91      -1.4788      1.00000
     92      -1.4693      1.00000
     93      -1.4496      1.00000
     94      -1.4355      1.00000
     95      -1.3983      1.00000
     96      -1.3909      1.00000
     97      -1.3692      1.00000
     98      -1.3652      1.00000
     99      -1.3491      1.00000
    100      -1.3339      1.00000
    101      -1.3049      1.00000
    102      -1.2908      1.00000
    103      -1.2486      1.00000
    104      -1.2254      1.00000
    105      -1.2162      1.00000
    106      -1.1902      1.00000
    107      -1.1689      1.00000
    108      -1.1539      1.00000
    109      -1.1341      1.00000
    110      -1.1283      1.00000
    111      -1.1137      1.00000
    112      -1.0995      1.00000
    113      -1.0884      1.00000
    114      -1.0828      1.00000
    115      -1.0723      1.00000
    116      -1.0428      1.00000
    117      -1.0293      1.00000
    118      -1.0053      1.00000
    119      -1.0031      1.00000
    120      -0.9575      1.00000
    121      -0.9403      1.00000
    122      -0.9215      1.00000
    123      -0.9107      1.00000
    124      -0.8890      1.00000
    125      -0.8845      1.00000
    126      -0.8791      1.00000
    127      -0.8608      1.00000
    128      -0.8456      1.00000
    129      -0.8255      1.00000
    130      -0.8243      1.00000
    131      -0.8127      1.00000
    132      -0.8054      1.00000
    133      -0.7747      1.00000
    134      -0.7601      1.00000
    135      -0.7514      1.00000
    136      -0.7465      1.00000
    137      -0.7390      1.00000
    138      -0.7293      1.00000
    139      -0.7158      1.00000
    140      -0.7067      1.00000
    141      -0.7000      1.00000
    142      -0.6846      1.00000
    143      -0.6711      1.00000
    144      -0.6460      1.00000
    145      -0.6176      1.00000
    146      -0.6078      1.00000
    147      -0.5965      1.00000
    148      -0.5525      1.00000
    149      -0.5393      1.00000
    150      -0.5325      1.00000
    151      -0.5248      1.00000
    152      -0.5117      1.00000
    153      -0.5042      1.00000
    154      -0.4920      1.00000
    155      -0.4868      1.00000
    156      -0.4852      1.00000
    157      -0.4636      1.00000
    158      -0.4533      1.00000
    159      -0.4490      1.00000
    160      -0.4333      1.00000
    161      -0.4071      1.00000
    162      -0.3958      1.00000
    163      -0.3822      1.00000
    164      -0.3705      1.00000
    165      -0.3527      1.00000
    166      -0.3285      1.00000
    167      -0.3163      1.00000
    168      -0.3074      1.00000
    169      -0.2832      1.00000
    170      -0.2733      1.00000
    171      -0.2508      1.00000
    172      -0.2375      1.00000
    173      -0.2269      1.00000
    174      -0.2191      1.00000
    175      -0.1996      1.00000
    176      -0.1787      1.00000
    177      -0.1705      1.00000
    178      -0.1504      1.00000
    179      -0.1053      1.00000
    180      -0.1010      1.00000
    181      -0.0962      1.00000
    182      -0.0830      1.00000
    183      -0.0706      1.00000
    184      -0.0657      1.00000
    185      -0.0587      1.00000
    186      -0.0519      1.00000
    187      -0.0354      1.00000
    188      -0.0324      1.00000
    189      -0.0239      1.00000
    190      -0.0204      1.00000
    191      -0.0078      1.00000
    192      -0.0038      1.00000
    193       0.0066      1.00000
    194       0.0161      1.00000
    195       0.0455      1.00000
    196       0.0584      1.00000
    197       0.0598      1.00000
    198       0.0795      1.00000
    199       0.1088      1.00000
    200       0.1124      1.00000
    201       0.1227      1.00000
    202       0.1586      1.00000
    203       0.1812      1.00000
    204       0.1949      1.00000
    205       0.2120      1.00000
    206       0.2304      1.00000
    207       0.2742      1.00000
    208       0.2863      1.00000
    209       0.3181      1.00000
    210       0.3324      1.00000
    211       0.3688      1.00000
    212       0.4479      1.00000
    213       0.6448      1.00000
    214       0.6880      1.00000
    215       0.7871      1.00000
    216       0.8462      1.00000
    217       0.8812      1.00000
    218       0.9737      1.00000
    219       1.0116      1.00000
    220       1.0235      1.00000
    221       1.0359      1.00000
    222       1.0568      1.00000
    223       1.0782      1.00000
    224       1.0903      1.00000
    225       1.1195      1.00000
    226       1.1567      1.00000
    227       1.1694      1.00000
    228       1.1826      1.00000
    229       1.2039      1.00000
    230       1.2399      1.00000
    231       1.3300      1.00000
    232       1.7282      1.00000
    233       1.8408      1.00000
    234       1.9055      1.00000
    235       1.9609      1.00000
    236       2.0467      1.00000
    237       2.0556      1.00000
    238       2.1300      1.00000
    239       2.1680      1.00000
    240       2.1963      1.00000
    241       2.2310      1.00000
    242       2.3176      1.00000
    243       2.3690      1.00000
    244       2.4256      1.00000
    245       2.4814      1.00000
    246       2.5131      1.00000
    247       2.6366      1.00000
    248       2.6808      1.00000
    249       3.1105      1.00000
    250       3.1788      1.00000
    251       3.2381      1.00000
    252       3.3137      1.00000
    253       3.5459      1.00000
    254       3.6482      1.00000
    255       4.5041      1.00000
    256       5.5288      1.00000
    257       7.9415      1.00000
    258       8.2721      1.00000
    259       8.4231      1.00000
    260       8.4445      1.00000
    261       8.4684      1.00000
    262       8.4875      1.00000
    263       8.5114      1.00000
    264       8.6130      1.00000
    265       8.6169      1.00000
    266       8.6923      1.00000
    267       8.7119      1.00000
    268       8.7242      1.00000
    269       8.7412      1.00000
    270       8.7780      1.00000
    271       8.7996      1.00000
    272       8.8254      1.00000
    273       8.8515      1.00000
    274       8.8807      1.00000
    275       8.8940      1.00000
    276       8.9175      1.00000
    277       8.9261      1.00000
    278       8.9478      1.00000
    279       8.9635      1.00000
    280       8.9692      1.00000
    281       8.9879      1.00000
    282       9.0140      1.00000
    283       9.0214      1.00000
    284       9.0357      1.00000
    285       9.0571      1.00000
    286       9.1018      1.00000
    287       9.1109      1.00000
    288       9.1285      1.00000
    289       9.1332      1.00000
    290       9.1530      1.00000
    291       9.1663      1.00000
    292       9.1768      1.00000
    293       9.1871      1.00000
    294       9.1994      1.00000
    295       9.2083      1.00000
    296       9.2178      1.00000
    297       9.2318      1.00000
    298       9.2578      1.00000
    299       9.2769      1.00000
    300       9.2969      1.00000
    301       9.3092      1.00000
    302       9.3303      1.00000
    303       9.3448      1.00000
    304       9.3696      1.00000
    305       9.3782      1.00000
    306       9.3887      1.00000
    307       9.3930      1.00000
    308       9.4096      1.00000
    309       9.4256      1.00000
    310       9.4332      1.00000
    311       9.4386      1.00000
    312       9.4447      1.00000
    313       9.4544      1.00000
    314       9.4571      1.00000
    315       9.4692      1.00000
    316       9.4860      1.00000
    317       9.5059      1.00000
    318       9.5125      1.00000
    319       9.5298      1.00000
    320       9.5427      1.00000
    321       9.5553      1.00000
    322       9.5608      1.00000
    323       9.5743      1.00000
    324       9.5782      1.00000
    325       9.5950      1.00000
    326       9.6086      1.00000
    327       9.6150      1.00000
    328       9.6306      1.00000
    329       9.6431      1.00000
    330       9.6555      1.00000
    331       9.6685      1.00000
    332       9.6791      1.00000
    333       9.6889      1.00000
    334       9.7109      1.00000
    335       9.7176      1.00000
    336       9.7361      1.00000
    337       9.7480      1.00000
    338       9.7540      1.00000
    339       9.7649      1.00000
    340       9.7709      1.00000
    341       9.7829      1.00000
    342       9.7929      1.00000
    343       9.7979      1.00000
    344       9.8095      1.00000
    345       9.8176      1.00000
    346       9.8220      1.00000
    347       9.8511      1.00000
    348       9.8592      1.00000
    349       9.8715      1.00000
    350       9.8802      1.00000
    351       9.8859      1.00000
    352       9.8965      1.00000
    353       9.9045      1.00000
    354       9.9179      1.00000
    355       9.9322      1.00000
    356       9.9398      1.00000
    357       9.9423      1.00000
    358       9.9592      1.00000
    359       9.9646      1.00000
    360       9.9732      1.00000
    361       9.9876      1.00000
    362       9.9915      1.00000
    363      10.0062      1.00000
    364      10.0107      1.00000
    365      10.0180      1.00000
    366      10.0290      1.00000
    367      10.0446      1.00000
    368      10.0494      1.00000
    369      10.0557      1.00000
    370      10.0709      1.00000
    371      10.0743      1.00000
    372      10.0815      1.00000
    373      10.0944      1.00000
    374      10.1009      1.00000
    375      10.1162      1.00000
    376      10.1251      1.00000
    377      10.1322      1.00000
    378      10.1537      1.00000
    379      10.1563      1.00000
    380      10.1699      1.00000
    381      10.1748      1.00000
    382      10.1889      1.00000
    383      10.1942      1.00000
    384      10.2047      1.00000
    385      10.2148      1.00000
    386      10.2259      1.00000
    387      10.2305      1.00000
    388      10.2353      1.00000
    389      10.2452      1.00000
    390      10.2543      1.00000
    391      10.2620      1.00000
    392      10.2670      1.00000
    393      10.2739      1.00000
    394      10.2785      1.00000
    395      10.2835      1.00000
    396      10.3016      1.00000
    397      10.3099      1.00000
    398      10.3170      1.00000
    399      10.3257      1.00000
    400      10.3286      1.00000
    401      10.3365      1.00000
    402      10.3433      1.00000
    403      10.3508      1.00000
    404      10.3606      1.00000
    405      10.3698      1.00000
    406      10.3803      1.00000
    407      10.3833      1.00000
    408      10.3982      1.00000
    409      10.4039      1.00000
    410      10.4094      1.00000
    411      10.4179      1.00000
    412      10.4247      1.00000
    413      10.4353      1.00000
    414      10.4429      1.00000
    415      10.4475      1.00000
    416      10.4561      1.00000
    417      10.4643      1.00000
    418      10.4693      1.00000
    419      10.4782      1.00000
    420      10.4819      1.00000
    421      10.4863      1.00000
    422      10.4964      1.00000
    423      10.5094      1.00000
    424      10.5158      1.00000
    425      10.5299      1.00000
    426      10.5330      1.00000
    427      10.5424      1.00000
    428      10.5528      1.00000
    429      10.5607      1.00000
    430      10.5649      1.00000
    431      10.5698      1.00000
    432      10.5795      1.00000
    433      10.5854      1.00000
    434      10.5949      1.00000
    435      10.6031      1.00000
    436      10.6058      1.00000
    437      10.6164      1.00000
    438      10.6224      1.00000
    439      10.6264      1.00000
    440      10.6306      1.00000
    441      10.6388      1.00000
    442      10.6450      1.00000
    443      10.6554      1.00000
    444      10.6601      1.00000
    445      10.6672      1.00000
    446      10.6738      1.00000
    447      10.6803      1.00000
    448      10.6839      1.00000
    449      10.6924      1.00000
    450      10.6977      1.00000
    451      10.7067      1.00000
    452      10.7112      1.00000
    453      10.7204      1.00000
    454      10.7297      1.00000
    455      10.7451      1.00000
    456      10.7537      1.00000
    457      10.7580      1.00000
    458      10.7701      1.00000
    459      10.7778      1.00000
    460      10.7896      1.00000
    461      10.7934      1.00000
    462      10.8003      1.00000
    463      10.8116      1.00000
    464      10.8312      1.00000
    465      10.8397      1.00000
    466      10.8415      1.00000
    467      10.8570      1.00000
    468      10.8745      1.00000
    469      10.8987      1.00000
    470      10.9091      1.00000
    471      10.9197      1.00000
    472      10.9356      1.00000
    473      10.9462      1.00000
    474      10.9536      1.00000
    475      10.9647      1.00000
    476      10.9765      1.00000
    477      10.9884      1.00000
    478      11.0039      1.00000
    479      11.0261      1.00000
    480      11.0280      1.00000
    481      11.0394      1.00000
    482      11.0479      1.00000
    483      11.0516      1.00000
    484      11.0650      1.00000
    485      11.0723      1.00000
    486      11.0807      1.00000
    487      11.0934      1.00000
    488      11.0975      1.00000
    489      11.1077      1.00000
    490      11.1191      1.00000
    491      11.1336      1.00000
    492      11.1385      1.00000
    493      11.1461      1.00000
    494      11.1529      1.00000
    495      11.1612      1.00000
    496      11.1701      1.00000
    497      11.1832      1.00000
    498      11.1910      1.00000
    499      11.1972      1.00000
    500      11.2048      1.00000
    501      11.2169      1.00000
    502      11.2288      1.00000
    503      11.2355      1.00000
    504      11.2433      1.00000
    505      11.2521      1.00000
    506      11.2647      1.00000
    507      11.2704      1.00000
    508      11.2896      1.00000
    509      11.2924      1.00000
    510      11.3018      1.00000
    511      11.3067      1.00000
    512      11.3158      1.00000
    513      11.3265      1.00000
    514      11.3381      1.00000
    515      11.3513      1.00000
    516      11.3669      1.00000
    517      11.3778      1.00000
    518      11.3831      1.00000
    519      11.3970      1.00000
    520      11.4105      1.00000
    521      11.4132      1.00000
    522      11.4270      1.00000
    523      11.4317      1.00000
    524      11.4504      1.00000
    525      11.4554      1.00000
    526      11.4685      1.00000
    527      11.4783      1.00000
    528      11.4887      1.00000
    529      11.5025      1.00000
    530      11.5351      1.00000
    531      11.5393      1.00000
    532      11.5557      1.00000
    533      11.5750      1.00000
    534      11.5886      1.00000
    535      11.5983      1.00000
    536      11.6099      1.00000
    537      11.6436      1.00000
    538      11.6538      1.00000
    539      11.6754      1.00000
    540      12.0158      1.00000
    541      12.3672      1.00000
    542      12.7830      1.00000
    543      12.9982      1.00000
    544      13.2663      1.00000
    545      13.3917      1.00000
    546      13.4886      1.00000
    547      13.6049      1.00000
    548      13.6846      1.00000
    549      13.7193      1.00000
    550      13.8547      1.00000
    551      13.9552      1.00000
    552      14.0262      1.00000
    553      14.0414      1.00000
    554      14.0806      1.00000
    555      14.1423      1.00000
    556      14.2018      1.00000
    557      14.2398      1.00000
    558      14.2672      1.00000
    559      14.3059      1.00000
    560      14.3143      1.00000
    561      14.3455      1.00000
    562      14.3804      1.00000
    563      14.4154      1.00000
    564      14.4271      1.00000
    565      14.4363      1.00000
    566      14.4534      1.00000
    567      14.4925      1.00000
    568      14.5092      1.00000
    569      14.5330      1.00000
    570      14.5744      1.00000
    571      14.6196      1.00000
    572      14.6730      1.00000
    573      14.7150      1.00000
    574      14.7451      1.00000
    575      16.1441      1.00000
    576      16.4835      1.00000
    577      16.5090      1.00000
    578      16.6153      1.00000
    579      16.6642      1.00000
    580      16.6992      1.00000
    581      16.6997      1.00000
    582      16.7251      1.00000
    583      16.7806      1.00000
    584      16.8236      1.00000
    585      16.9783      1.00000
    586      16.9977      1.00000
    587      17.0253      1.00000
    588       7.0276      0.99668
    589       7.0769      0.00332
    590       7.1464      0.00000
    591       7.1871      0.00000
    592       7.2098      0.00000
    593       7.2244      0.00000
    594       7.2283      0.00000
    595       7.2429      0.00000
    596       7.2478      0.00000
    597       7.2517      0.00000
    598       7.2519      0.00000
    599       7.2654      0.00000
    600       7.2660      0.00000
    601       7.2729      0.00000
    602       7.2819      0.00000
    603       7.2902      0.00000
    604       7.3088      0.00000
    605       7.3551      0.00000
    606       7.3693      0.00000
    607       7.3752      0.00000
    608       7.3766      0.00000
    609       7.3985      0.00000
    610       7.4023      0.00000
    611       7.4031      0.00000
    612       7.4172      0.00000
    613       7.4243      0.00000
    614       7.4422      0.00000
    615       7.4438      0.00000
    616       7.4800      0.00000
    617       7.5341      0.00000
    618       7.5575      0.00000
    619       7.5859      0.00000
    620       7.5860      0.00000
    621       7.5865      0.00000
    622       7.5968      0.00000
    623       7.6084      0.00000
    624       7.6120      0.00000
    625       7.6130      0.00000
    626       7.6546      0.00000
    627       7.6699      0.00000
    628       7.6714      0.00000
    629       7.6876      0.00000
    630       7.7082      0.00000
    631       7.7098      0.00000
    632       7.7307      0.00000
    633       7.7342      0.00000
    634       7.7365      0.00000
    635       7.7416      0.00000
    636       7.7460      0.00000
    637       7.7677      0.00000
    638       7.8258      0.00000
    639       7.8317      0.00000
    640       7.8429      0.00000
    641       7.8445      0.00000
    642       7.9057      0.00000
    643       7.9575      0.00000
    644       7.9755      0.00000
    645       7.9777      0.00000
    646       7.9894      0.00000
    647       7.9974      0.00000
    648       8.0365      0.00000
    649       8.0435      0.00000
    650       8.0734      0.00000
    651       8.0766      0.00000
    652       8.0972      0.00000
    653       8.0977      0.00000
    654       8.0989      0.00000
    655       8.1150      0.00000
    656       8.1224      0.00000
    657       8.1242      0.00000
    658       8.1433      0.00000
    659       8.1548      0.00000
    660       8.1705      0.00000
    661       8.1856      0.00000
    662       8.1937      0.00000
    663       8.2101      0.00000
    664       8.2292      0.00000
    665       8.2304      0.00000
    666       8.2349      0.00000
    667       8.2414      0.00000
    668       8.2868      0.00000
    669       8.2892      0.00000
    670       8.2931      0.00000
    671       8.3192      0.00000
    672       8.3296      0.00000
    673       8.3413      0.00000
    674       8.3424      0.00000
    675       8.3494      0.00000
    676       8.3608      0.00000
    677       8.3888      0.00000
    678       8.4244      0.00000
    679       8.4270      0.00000
    680       8.4293      0.00000
    681       8.4467      0.00000
    682       8.4544      0.00000
    683       8.4666      0.00000
    684       8.4756      0.00000
    685       8.4880      0.00000
    686       8.4943      0.00000
    687       8.5008      0.00000
    688       8.5399      0.00000
    689       8.5768      0.00000
    690       8.5851      0.00000
    691       8.5891      0.00000
    692       8.5945      0.00000
    693       8.5979      0.00000
    694       8.6078      0.00000
    695       8.6225      0.00000
    696       8.6433      0.00000
    697       8.6603      0.00000
    698       8.6912      0.00000
    699       8.7233      0.00000
    700       8.7532      0.00000
    701       8.7632      0.00000
    702       8.8023      0.00000
    703       8.8069      0.00000
    704       8.8101      0.00000
    705       8.8102      0.00000
    706       8.8303      0.00000
    707       8.8545      0.00000
    708       8.8548      0.00000
    709       8.8566      0.00000
    710       8.8660      0.00000
    711       8.8707      0.00000
    712       8.8740      0.00000
    713       8.8749      0.00000
    714       8.8750      0.00000
    715       8.8851      0.00000
    716       8.8919      0.00000
    717       8.9160      0.00000
    718       8.9179      0.00000
    719       8.9314      0.00000
    720       8.9510      0.00000
    721       8.9745      0.00000
    722       8.9751      0.00000
    723       8.9828      0.00000
    724       8.9974      0.00000
    725       9.0089      0.00000
    726       9.0253      0.00000
    727       9.0258      0.00000
    728       9.0354      0.00000
    729       9.0423      0.00000
    730       9.0471      0.00000
    731       9.0618      0.00000
    732       9.0732      0.00000
    733       9.0765      0.00000
    734       9.0994      0.00000
    735       9.1100      0.00000
    736       9.1221      0.00000
    737       9.1315      0.00000
    738       9.1377      0.00000
    739       9.1382      0.00000
    740       9.1420      0.00000
    741       9.1538      0.00000
    742       9.1543      0.00000
    743       9.1638      0.00000
    744       9.1702      0.00000
    745       9.1737      0.00000
    746       9.1738      0.00000
    747       9.1817      0.00000
    748       9.1845      0.00000
    749       9.1905      0.00000
    750       9.1920      0.00000
    751       9.2012      0.00000
    752       9.2148      0.00000
    753       9.2514      0.00000
    754       9.2541      0.00000
    755       9.3030      0.00000
    756       9.3214      0.00000
    757       9.3340      0.00000
    758       9.3553      0.00000
    759       9.3565      0.00000
    760       9.3705      0.00000
    761       9.3814      0.00000
    762       9.3899      0.00000
    763       9.4037      0.00000
    764       9.4111      0.00000
    765       9.4193      0.00000
    766       9.4312      0.00000
    767       9.4535      0.00000
    768       9.4539      0.00000
    769       9.4584      0.00000
    770       9.4654      0.00000
    771       9.4812      0.00000
    772       9.4814      0.00000
    773       9.5105      0.00000
    774       9.5364      0.00000
    775       9.5503      0.00000
    776       9.8031      0.00000
    777       9.8491      0.00000
    778      10.3325      0.00000
    779      10.4399      0.00000
    780      10.4513      0.00000
    781      11.2259      0.00000
    782      15.1213      0.00000
    783      20.9502      0.00000
    784     145.1884      0.00000

 k-point     2 :       0.5000    0.0000    0.0000
  band No.  band energies     occupation 
      1     -32.9660      1.00000
      2     -11.9332      1.00000
      3     -11.4058      1.00000
      4     -11.3247      1.00000
      5     -11.3142      1.00000
      6     -11.3086      1.00000
      7     -11.3077      1.00000
      8     -11.3050      1.00000
      9     -11.2992      1.00000
     10     -11.2964      1.00000
     11     -11.2943      1.00000
     12     -11.2916      1.00000
     13     -11.2616      1.00000
     14     -11.1110      1.00000
     15     -10.8241      1.00000
     16     -10.6055      1.00000
     17     -10.5560      1.00000
     18     -10.5541      1.00000
     19     -10.5470      1.00000
     20     -10.5392      1.00000
     21     -10.5355      1.00000
     22     -10.5302      1.00000
     23     -10.5232      1.00000
     24     -10.5134      1.00000
     25     -10.5100      1.00000
     26     -10.5083      1.00000
     27     -10.5070      1.00000
     28     -10.5044      1.00000
     29     -10.5030      1.00000
     30     -10.5015      1.00000
     31     -10.4964      1.00000
     32     -10.4921      1.00000
     33     -10.4904      1.00000
     34     -10.4838      1.00000
     35     -10.4820      1.00000
     36     -10.4737      1.00000
     37     -10.4685      1.00000
     38     -10.4637      1.00000
     39     -10.3537      1.00000
     40     -10.2998      1.00000
     41     -10.2100      1.00000
     42     -10.1743      1.00000
     43     -10.1499      1.00000
     44     -10.1417      1.00000
     45     -10.1342      1.00000
     46     -10.1208      1.00000
     47     -10.1075      1.00000
     48     -10.0954      1.00000
     49     -10.0852      1.00000
     50     -10.0617      1.00000
     51     -10.0434      1.00000
     52      -9.7760      1.00000
     53      -9.2546      1.00000
     54      -8.7212      1.00000
     55      -8.5202      1.00000
     56      -8.3425      1.00000
     57      -8.2261      1.00000
     58      -8.1584      1.00000
     59      -8.1022      1.00000
     60      -8.0882      1.00000
     61      -8.0587      1.00000
     62      -7.9380      1.00000
     63      -7.8379      1.00000
     64      -7.7679      1.00000
     65      -7.3399      1.00000
     66      -4.4840      1.00000
     67      -3.4605      1.00000
     68      -3.2295      1.00000
     69      -2.8407      1.00000
     70      -2.6924      1.00000
     71      -2.6235      1.00000
     72      -2.5192      1.00000
     73      -2.3738      1.00000
     74      -2.2877      1.00000
     75      -2.2358      1.00000
     76      -2.2079      1.00000
     77      -2.1563      1.00000
     78      -2.1171      1.00000
     79      -2.0631      1.00000
     80      -2.0490      1.00000
     81      -1.9998      1.00000
     82      -1.9332      1.00000
     83      -1.9140      1.00000
     84      -1.8663      1.00000
     85      -1.8390      1.00000
     86      -1.8205      1.00000
     87      -1.7711      1.00000
     88      -1.6997      1.00000
     89      -1.6720      1.00000
     90      -1.6590      1.00000
     91      -1.6332      1.00000
     92      -1.6035      1.00000
     93      -1.5596      1.00000
     94      -1.5417      1.00000
     95      -1.5032      1.00000
     96      -1.4757      1.00000
[...]
 l=   3
     0.0000000     0.0000000     0.0000000     0.0000000     0.0000000     0.0000000     0.0000000
     0.0000000     0.0000000     0.0000000     0.0000000     0.0000000     0.0000000     0.0000000
     0.0000000     0.0000000     0.0000000     0.0000000     0.0000000     0.0000000     0.0000000
     0.0000000     0.0000000     0.0000000     0.0000000     0.0000000     0.0000000     0.0000000
     0.0000000     0.0000000     0.0000000     0.0000000     0.0000000     0.0000000     0.0000000
     0.0000000     0.0000000     0.0000000     0.0000000     0.0000000     0.0000000     0.0000000
     0.0000000     0.0000000     0.0000000     0.0000000     0.0000000     0.0000000     0.0000000

 Ion:   61  E_soc:     -0.1834194
 l=   1
     0.0000000    -0.0306223    -0.0304851
    -0.0306223     0.0000000    -0.0304682
    -0.0304851    -0.0304682    -0.0000000
 l=   2
    -0.0000000    -0.0000264     0.0000000    -0.0000110    -0.0000179
    -0.0000264    -0.0000000    -0.0000351    -0.0000152     0.0000033
     0.0000000    -0.0000351     0.0000000    -0.0000330     0.0000000
    -0.0000110    -0.0000152    -0.0000330    -0.0000000     0.0000012
    -0.0000179     0.0000033     0.0000000     0.0000012    -0.0000000
 l=   3
     0.0000000     0.0000000     0.0000000     0.0000000     0.0000000     0.0000000     0.0000000
     0.0000000     0.0000000     0.0000000     0.0000000     0.0000000     0.0000000     0.0000000
     0.0000000     0.0000000     0.0000000     0.0000000     0.0000000     0.0000000     0.0000000
     0.0000000     0.0000000     0.0000000     0.0000000     0.0000000     0.0000000     0.0000000
     0.0000000     0.0000000     0.0000000     0.0000000     0.0000000     0.0000000     0.0000000
     0.0000000     0.0000000     0.0000000     0.0000000     0.0000000     0.0000000     0.0000000
     0.0000000     0.0000000     0.0000000     0.0000000     0.0000000     0.0000000     0.0000000

 Ion:   62  E_soc:     -0.1824392
 l=   1
     0.0000000    -0.0302164    -0.0304406
    -0.0302164     0.0000000    -0.0304456
    -0.0304406    -0.0304456    -0.0000000
 l=   2
    -0.0000000    -0.0000254     0.0000000    -0.0000119    -0.0000234
    -0.0000254    -0.0000000    -0.0000126    -0.0000098    -0.0000108
     0.0000000    -0.0000126     0.0000000    -0.0000038     0.0000000
    -0.0000119    -0.0000098    -0.0000038    -0.0000000    -0.0000193
    -0.0000234    -0.0000108     0.0000000    -0.0000193    -0.0000000
 l=   3
     0.0000000     0.0000000     0.0000000     0.0000000     0.0000000     0.0000000     0.0000000
     0.0000000     0.0000000     0.0000000     0.0000000     0.0000000     0.0000000     0.0000000
     0.0000000     0.0000000     0.0000000     0.0000000     0.0000000     0.0000000     0.0000000
     0.0000000     0.0000000     0.0000000     0.0000000     0.0000000     0.0000000     0.0000000
     0.0000000     0.0000000     0.0000000     0.0000000     0.0000000     0.0000000     0.0000000
     0.0000000     0.0000000     0.0000000     0.0000000     0.0000000     0.0000000     0.0000000
     0.0000000     0.0000000     0.0000000     0.0000000     0.0000000     0.0000000     0.0000000

 Ion:   63  E_soc:     -0.1894296
 l=   1
     0.0000000    -0.0316321    -0.0312496
    -0.0316321     0.0000000    -0.0316726
    -0.0312496    -0.0316726     0.0000000
 l=   2
    -0.0000000    -0.0000369     0.0000000    -0.0000139    -0.0000453
    -0.0000369    -0.0000000    -0.0000373    -0.0000134    -0.0000073
     0.0000000    -0.0000373     0.0000000    -0.0000063     0.0000000
    -0.0000139    -0.0000134    -0.0000063    -0.0000000    -0.0000001
    -0.0000453    -0.0000073     0.0000000    -0.0000001    -0.0000000
 l=   3
     0.0000000     0.0000000     0.0000000     0.0000000     0.0000000     0.0000000     0.0000000
     0.0000000     0.0000000     0.0000000     0.0000000     0.0000000     0.0000000     0.0000000
     0.0000000     0.0000000     0.0000000     0.0000000     0.0000000     0.0000000     0.0000000
     0.0000000     0.0000000     0.0000000     0.0000000     0.0000000     0.0000000     0.0000000
     0.0000000     0.0000000     0.0000000     0.0000000     0.0000000     0.0000000     0.0000000
     0.0000000     0.0000000     0.0000000     0.0000000     0.0000000     0.0000000     0.0000000
     0.0000000     0.0000000     0.0000000     0.0000000     0.0000000     0.0000000     0.0000000

 Ion:   64  E_soc:     -0.1827708
 l=   1
    -0.0000000    -0.0303958    -0.0304724
    -0.0303958     0.0000000    -0.0303854
    -0.0304724    -0.0303854     0.0000000
 l=   2
    -0.0000000    -0.0000235     0.0000000    -0.0000115    -0.0000276
    -0.0000235    -0.0000000    -0.0000076    -0.0000109    -0.0000114
     0.0000000    -0.0000076     0.0000000    -0.0000208     0.0000000
    -0.0000115    -0.0000109    -0.0000208    -0.0000000    -0.0000185
    -0.0000276    -0.0000114     0.0000000    -0.0000185    -0.0000000
 l=   3
     0.0000000     0.0000000     0.0000000     0.0000000     0.0000000     0.0000000     0.0000000
     0.0000000     0.0000000     0.0000000     0.0000000     0.0000000     0.0000000     0.0000000
     0.0000000     0.0000000     0.0000000     0.0000000     0.0000000     0.0000000     0.0000000
     0.0000000     0.0000000     0.0000000     0.0000000     0.0000000     0.0000000     0.0000000
     0.0000000     0.0000000     0.0000000     0.0000000     0.0000000     0.0000000     0.0000000
     0.0000000     0.0000000     0.0000000     0.0000000     0.0000000     0.0000000     0.0000000
     0.0000000     0.0000000     0.0000000     0.0000000     0.0000000     0.0000000     0.0000000

 Ion:   65  E_soc:     -0.1889201
 l=   1
     0.0000000    -0.0316301    -0.0310538
    -0.0316301     0.0000000    -0.0316192
    -0.0310538    -0.0316192     0.0000000
 l=   2
    -0.0000000    -0.0000357     0.0000000    -0.0000104    -0.0000400
    -0.0000357    -0.0000000    -0.0000376    -0.0000172    -0.0000057
     0.0000000    -0.0000376     0.0000000    -0.0000084     0.0000000
    -0.0000104    -0.0000172    -0.0000084    -0.0000000    -0.0000019
    -0.0000400    -0.0000057     0.0000000    -0.0000019    -0.0000000
 l=   3
     0.0000000     0.0000000     0.0000000     0.0000000     0.0000000     0.0000000     0.0000000
     0.0000000     0.0000000     0.0000000     0.0000000     0.0000000     0.0000000     0.0000000
     0.0000000     0.0000000     0.0000000     0.0000000     0.0000000     0.0000000     0.0000000
     0.0000000     0.0000000     0.0000000     0.0000000     0.0000000     0.0000000     0.0000000
     0.0000000     0.0000000     0.0000000     0.0000000     0.0000000     0.0000000     0.0000000
     0.0000000     0.0000000     0.0000000     0.0000000     0.0000000     0.0000000     0.0000000
     0.0000000     0.0000000     0.0000000     0.0000000     0.0000000     0.0000000     0.0000000



 total charge     

# of ion       s       p       d       tot
------------------------------------------
    1        0.664   0.529   9.387  10.580
    2        0.675   0.509   9.603  10.787
    3        0.674   0.510   9.604  10.788
    4        0.685   0.513   9.606  10.805
    5        0.674   0.510   9.609  10.793
    6        0.685   0.514   9.609  10.807
    7        0.682   0.513   9.609  10.805
    8        0.712   0.515   9.611  10.838
    9        0.675   0.510   9.603  10.787
   10        0.663   0.528   9.436  10.627
   11        0.686   0.513   9.607  10.805
   12        0.673   0.509   9.603  10.786
   13        0.686   0.513   9.609  10.808
   14        0.673   0.510   9.608  10.791
   15        0.712   0.515   9.611  10.839
   16        0.682   0.513   9.610  10.805
   17        0.686   0.513   9.609  10.808
   18        0.676   0.510   9.607  10.793
   19        0.712   0.516   9.611  10.839
   20        0.684   0.513   9.609  10.807
   21        0.675   0.510   9.603  10.788
   22        0.664   0.529   9.408  10.601
   23        0.687   0.513   9.601  10.801
   24        0.674   0.510   9.603  10.787
   25        0.674   0.510   9.607  10.791
   26        0.686   0.514   9.609  10.808
   27        0.684   0.513   9.610  10.807
   28        0.713   0.516   9.610  10.839
   29        0.663   0.529   9.430  10.622
   30        0.676   0.510   9.603  10.789
   31        0.675   0.510   9.604  10.789
   32        0.686   0.513   9.603  10.801
   33        1.008   0.325   0.722   2.056
   34        1.310   2.144   0.041   3.495
   35        1.312   2.141   0.041   3.494
   36        1.322   2.134   0.043   3.499
   37        1.307   2.145   0.041   3.493
   38        1.310   2.144   0.041   3.496
   39        1.313   2.143   0.041   3.496
   40        1.322   2.135   0.043   3.500
   41        1.307   2.145   0.041   3.494
   42        1.313   2.135   0.042   3.490
   43        1.304   2.155   0.044   3.502
   44        1.302   2.155   0.044   3.500
   45        1.304   2.134   0.042   3.480
   46        1.303   2.156   0.044   3.503
   47        1.305   2.135   0.042   3.482
   48        1.311   2.135   0.042   3.488
   49        1.306   2.156   0.044   3.506
   50        1.310   2.144   0.041   3.495
   51        1.303   2.144   0.041   3.489
   52        1.318   2.136   0.043   3.497
   53        1.317   2.136   0.043   3.497
   54        1.311   2.141   0.040   3.493
   55        1.312   2.142   0.041   3.494
   56        1.309   2.144   0.041   3.494
   57        1.302   2.143   0.041   3.486
   58        1.322   2.136   0.043   3.501
   59        1.307   2.145   0.041   3.494
   60        1.322   2.135   0.043   3.501
   61        1.307   2.145   0.041   3.494
   62        1.309   2.144   0.041   3.495
   63        1.312   2.142   0.041   3.495
   64        1.305   2.143   0.041   3.490
   65        1.312   2.142   0.041   3.495
--------------------------------------------------
tot         64.756  85.335 308.715 458.806



 magnetization (x)

# of ion       s       p       d       tot
------------------------------------------
    1       -0.003  -0.005   0.017   0.010
    2       -0.003  -0.003   0.012   0.007
    3       -0.000  -0.003   0.011   0.008
    4        0.002  -0.003   0.013   0.012
    5       -0.002  -0.003   0.014   0.009
    6       -0.001  -0.003   0.013   0.009
    7        0.001  -0.002   0.014   0.012
    8        0.003  -0.003   0.013   0.013
    9       -0.000  -0.003   0.011   0.007
   10       -0.004  -0.005   0.006  -0.003
   11        0.001  -0.004   0.014   0.010
   12       -0.002  -0.003   0.012   0.007
   13       -0.000  -0.004   0.013   0.010
   14       -0.001  -0.003   0.013   0.009
   15        0.003  -0.003   0.014   0.014
   16        0.000  -0.003   0.013   0.010
   17       -0.002  -0.003   0.014   0.009
   18       -0.005  -0.003   0.012   0.004
   19        0.000  -0.004   0.013   0.009
   20       -0.001  -0.002   0.014   0.010
   21       -0.004  -0.003   0.013   0.006
   22       -0.004  -0.005   0.019   0.010
   23       -0.002  -0.003   0.014   0.009
   24       -0.003  -0.003   0.013   0.007
   25       -0.001  -0.003   0.014   0.011
   26       -0.001  -0.003   0.012   0.009
   27       -0.001  -0.003   0.013   0.008
   28        0.004  -0.004   0.012   0.012
   29       -0.004  -0.006  -0.004  -0.014
   30       -0.003  -0.003   0.013   0.007
   31       -0.003  -0.003   0.013   0.007
   32       -0.001  -0.003   0.011   0.006
   33        0.010   0.004   0.082   0.096
   34        0.002  -0.005  -0.001  -0.004
   35        0.000  -0.002  -0.001  -0.004
   36        0.002  -0.006  -0.001  -0.004
   37        0.003  -0.006  -0.001  -0.004
   38        0.000  -0.005  -0.001  -0.006
   39       -0.000  -0.002  -0.001  -0.004
   40        0.003  -0.005  -0.001  -0.003
   41        0.003  -0.006  -0.001  -0.003
   42        0.003  -0.006  -0.001  -0.004
   43        0.003  -0.006  -0.001  -0.004
   44        0.002  -0.007  -0.001  -0.005
   45       -0.002  -0.006  -0.001  -0.009
   46        0.003  -0.004  -0.001  -0.003
   47       -0.002  -0.006  -0.001  -0.009
   48        0.002  -0.006  -0.001  -0.005
   49        0.004  -0.005  -0.001  -0.002
   50        0.002  -0.006  -0.001  -0.004
   51       -0.002  -0.005  -0.001  -0.008
   52        0.003  -0.004  -0.001  -0.002
   53        0.003  -0.005  -0.001  -0.003
   54        0.002  -0.001  -0.001  -0.001
   55        0.001  -0.003  -0.001  -0.003
   56        0.001  -0.005  -0.001  -0.005
   57       -0.002  -0.006  -0.001  -0.009
   58        0.002  -0.004  -0.001  -0.004
   59        0.003  -0.006  -0.001  -0.004
   60        0.003  -0.004  -0.001  -0.001
   61        0.003  -0.006  -0.001  -0.004
   62        0.001  -0.005  -0.001  -0.005
   63        0.000  -0.001  -0.001  -0.002
   64       -0.001  -0.007  -0.001  -0.008
   65        0.001  -0.002  -0.001  -0.003
--------------------------------------------------
tot          0.017  -0.255   0.445   0.208



 magnetization (y)

# of ion       s       p       d       tot
------------------------------------------
    1       -0.005  -0.006   0.003  -0.008
    2       -0.003  -0.002   0.013   0.008
    3       -0.000  -0.002   0.014   0.011
    4       -0.000  -0.003   0.013   0.010
    5       -0.002  -0.003   0.014   0.009
    6       -0.000  -0.003   0.013   0.010
    7        0.001  -0.003   0.013   0.011
    8        0.004  -0.003   0.013   0.014
    9       -0.001  -0.003   0.012   0.008
   10       -0.004  -0.005  -0.001  -0.009
   11       -0.001  -0.003   0.014   0.010
   12       -0.003  -0.003   0.015   0.009
   13        0.002  -0.003   0.014   0.013
   14       -0.002  -0.004   0.012   0.006
   15        0.002  -0.004   0.013   0.011
   16       -0.001  -0.002   0.013   0.010
   17        0.001  -0.003   0.014   0.012
   18       -0.001  -0.002   0.012   0.009
   19        0.002  -0.003   0.014   0.012
   20       -0.002  -0.002   0.014   0.009
   21       -0.003  -0.003   0.015   0.008
   22       -0.002  -0.005   0.005  -0.001
   23       -0.004  -0.002   0.014   0.008
   24       -0.002  -0.002   0.013   0.008
   25       -0.001  -0.002   0.014   0.011
   26        0.001  -0.002   0.013   0.012
   27       -0.001  -0.002   0.014   0.010
   28        0.001  -0.003   0.013   0.011
   29       -0.006  -0.004   0.014   0.004
   30       -0.006  -0.002   0.013   0.005
   31       -0.004  -0.002   0.014   0.008
   32       -0.001  -0.003   0.014   0.010
   33        0.009   0.005   0.047   0.061
   34        0.002  -0.004  -0.001  -0.003
   35        0.000  -0.001  -0.001  -0.002
   36        0.002  -0.005  -0.001  -0.004
   37        0.003  -0.006  -0.001  -0.004
   38        0.002  -0.006  -0.001  -0.005
   39        0.000  -0.002  -0.001  -0.003
   40        0.003  -0.005  -0.001  -0.002
   41        0.003  -0.005  -0.001  -0.003
   42        0.003  -0.005  -0.001  -0.003
   43        0.001  -0.004  -0.001  -0.005
   44        0.003  -0.005  -0.001  -0.003
   45       -0.001  -0.006  -0.001  -0.008
   46        0.003  -0.005  -0.001  -0.003
   47       -0.001  -0.007  -0.001  -0.009
   48        0.002  -0.006  -0.001  -0.005
   49        0.005  -0.005  -0.001  -0.001
   50        0.002  -0.004  -0.001  -0.003
   51       -0.001  -0.005  -0.001  -0.007
   52        0.003  -0.004  -0.001  -0.002
   53        0.004  -0.005  -0.001  -0.001
   54        0.002  -0.002  -0.001  -0.001
   55        0.001  -0.001  -0.001  -0.001
   56        0.001  -0.005  -0.001  -0.005
   57       -0.002  -0.006  -0.001  -0.009
   58        0.003  -0.004  -0.001  -0.002
   59        0.003  -0.006  -0.001  -0.005
   60        0.002  -0.005  -0.001  -0.004
   61        0.003  -0.005  -0.001  -0.003
   62        0.002  -0.007  -0.001  -0.006
   63        0.001  -0.002  -0.001  -0.002
   64       -0.001  -0.005  -0.001  -0.007
   65        0.000  -0.002  -0.001  -0.002
--------------------------------------------------
tot          0.020  -0.236   0.413   0.197



 magnetization (z)

# of ion       s       p       d       tot
------------------------------------------
    1       -0.006  -0.004   0.023   0.013
    2       -0.004  -0.002   0.018   0.011
    3       -0.002  -0.003   0.015   0.010
    4       -0.001  -0.002   0.015   0.011
    5       -0.003  -0.002   0.013   0.008
    6       -0.001  -0.002   0.013   0.009
    7        0.001  -0.003   0.013   0.011
    8        0.002  -0.004   0.012   0.010
    9       -0.000  -0.002   0.016   0.013
   10       -0.008  -0.005   0.013   0.000
   11       -0.001  -0.003   0.015   0.011
   12       -0.003  -0.002   0.016   0.010
   13        0.000  -0.003   0.013   0.011
   14       -0.003  -0.002   0.012   0.007
   15        0.003  -0.003   0.012   0.012
   16        0.000  -0.003   0.013   0.010
   17       -0.002  -0.002   0.013   0.009
   18       -0.001  -0.003   0.012   0.009
   19        0.002  -0.003   0.013   0.012
   20        0.000  -0.004   0.013   0.009
   21       -0.003  -0.002   0.008   0.002
   22       -0.003  -0.005   0.016   0.007
   23       -0.005  -0.002   0.006  -0.001
   24       -0.003  -0.003   0.009   0.003
   25       -0.001  -0.003   0.012   0.008
   26       -0.002  -0.003   0.013   0.008
   27        0.001  -0.003   0.013   0.011
   28       -0.000  -0.003   0.013   0.010
   29       -0.007  -0.005  -0.012  -0.023
   30       -0.005  -0.003   0.008   0.001
   31       -0.006  -0.002   0.008   0.000
   32       -0.003  -0.003   0.007   0.001
   33        0.006   0.003   0.044   0.053
   34        0.003  -0.006  -0.001  -0.004
   35        0.000  -0.002  -0.001  -0.003
   36        0.002  -0.003  -0.001  -0.002
   37        0.003  -0.005  -0.001  -0.003
   38        0.002  -0.006  -0.001  -0.004
   39        0.001  -0.002  -0.001  -0.002
   40        0.002  -0.005  -0.001  -0.004
   41        0.003  -0.005  -0.001  -0.004
   42        0.002  -0.006  -0.001  -0.005
   43        0.000  -0.004  -0.001  -0.005
   44       -0.000  -0.005  -0.001  -0.007
   45       -0.002  -0.005  -0.001  -0.008
   46        0.002  -0.005  -0.001  -0.004
   47       -0.002  -0.006  -0.001  -0.009
   48        0.001  -0.006  -0.001  -0.005
   49        0.004  -0.005  -0.001  -0.002
   50        0.001  -0.005  -0.001  -0.005
   51       -0.002  -0.005  -0.001  -0.008
   52        0.004  -0.004  -0.001  -0.001
   53        0.003  -0.004  -0.001  -0.002
   54        0.000  -0.003  -0.001  -0.004
   55        0.001  -0.001  -0.001  -0.002
   56        0.000  -0.007  -0.001  -0.007
   57       -0.002  -0.005  -0.001  -0.008
   58        0.002  -0.004  -0.001  -0.003
   59        0.003  -0.005  -0.001  -0.003
   60        0.003  -0.004  -0.001  -0.002
   61        0.003  -0.005  -0.001  -0.003
   62        0.002  -0.006  -0.001  -0.005
   63        0.000  -0.003  -0.001  -0.004
   64        0.000  -0.006  -0.001  -0.006
   65        0.001  -0.001  -0.001  -0.001
--------------------------------------------------
tot         -0.018  -0.233   0.394   0.143


 total amount of memory used by VASP MPI-rank0   125247. kBytes
=======================================================================

   base      :      30000. kBytes
   nonl-proj :       5136. kBytes
   fftplans  :       6884. kBytes
   grid      :      12386. kBytes
   one-center:        186. kBytes
   HF        :        129. kBytes
   nonlr-proj:      10316. kBytes
   wavefun   :      60210. kBytes

  
  
 General timing and accounting informations for this job:
 ========================================================
  
                  Total CPU time used (sec):     4482.574
                            User time (sec):     4465.654
                          System time (sec):       16.920
                         Elapsed time (sec):     4481.653
  
                   Maximum memory used (kb):      632808.
                   Average memory used (kb):           0.
  
                          Minor page faults:       340689
                          Major page faults:           26
                 Voluntary context switches:        91586
