 vasp.5.4.4.18Apr17-6-g9f103f2a35 (build Apr  4 2022 10:17:17) complex           
 executed on        HPECrayEX-GNU date 2022.05.02  19:56:19
 running on 2048 total cores
 distrk:  each k-point on 1024 cores,    2 groups
 distr:  one band on NCORES_PER_BAND=  32 cores,   32 groups


--------------------------------------------------------------------------------------------------------


 INCAR:
 POTCAR:    PAW_PBE Cd 06Sep2000                  
 POTCAR:    PAW_PBE Te 08Apr2002                  

 ----------------------------------------------------------------------------- 
|                                                                             |
|           W    W    AA    RRRRR   N    N  II  N    N   GGGG   !!!           |
|           W    W   A  A   R    R  NN   N  II  NN   N  G    G  !!!           |
|           W    W  A    A  R    R  N N  N  II  N N  N  G       !!!           |
|           W WW W  AAAAAA  RRRRR   N  N N  II  N  N N  G  GGG   !            |
|           WW  WW  A    A  R   R   N   NN  II  N   NN  G    G                |
|           W    W  A    A  R    R  N    N  II  N    N   GGGG   !!!           |
|                                                                             |
|      You have enabled k-point parallelism (KPAR>1).                         |
|      This developmental code was originally  written by Paul Kent at ORNL,  |
|      and carefully double checked in Vienna.                                |
|      GW as well as linear response parallelism added by Martijn Marsman     |
|      and Georg Kresse.                                                      |
|      Carefully verify results versus KPAR=1.                                |
|      Report problems to Paul Kent and Vienna.                               |
|                                                                             |
 ----------------------------------------------------------------------------- 

 POTCAR:    PAW_PBE Cd 06Sep2000                  
   VRHFIN =Cd : s2 d10                                                          
   LEXCH  = PE                                                                  
   EATOM  =  1293.1815 eV,   95.0462 Ry                                         
                                                                                
   TITEL  = PAW_PBE Cd 06Sep2000                                                
   LULTRA =        F    use ultrasoft PP ?                                      
   IUNSCR =        1    unscreen: 0-lin 1-nonlin 2-no                           
   RPACOR =    2.000    partial core radius                                     
   POMASS =  112.411; ZVAL   =   12.000    mass and valenz                      
   RCORE  =    2.300    outmost cutoff radius                                   
   RWIGS  =    2.980; RWIGS  =    1.577    wigner-seitz radius (au A)           
   ENMAX  =  274.336; ENMIN  =  205.752 eV                                      
   RCLOC  =    2.054    cutoff for local pot                                    
   LCOR   =        T    correct aug charges                                     
   LPAW   =        T    paw PP                                                  
   EAUG   =  456.106                                                            
   DEXC   =    0.000                                                            
   RMAX   =    2.358    core radius for proj-oper                               
   RAUG   =    1.300    factor for augmentation sphere                          
   RDEP   =    2.450    radius for radial grids                                 
   RDEPT  =    1.955    core radius for aug-charge                              
                                                                                
   Atomic configuration                                                         
   12 entries                                                                   
     n  l   j            E        occ.                                          
     1  0  0.50    -26519.7817   2.0000                                         
     2  0  0.50     -3936.9612   2.0000                                         
     2  1  1.50     -3532.2230   6.0000                                         
     3  0  0.50      -733.7908   2.0000                                         
     3  1  1.50      -601.0792   6.0000                                         
     3  2  2.50      -393.5307  10.0000                                         
     4  0  0.50      -105.8977   2.0000                                         
     4  1  1.50       -66.9488   6.0000                                         
     4  2  2.50       -11.7331  10.0000                                         
     5  0  0.50        -5.6592   2.0000                                         
     5  1  0.50        -1.3606   0.0000                                         
     4  3  2.50        -1.3606   0.0000                                         
   Description                                                                  
     l       E           TYP  RCUT    TYP  RCUT                                 
     2    -11.7331479     23  2.300                                             
     2    -13.0937305     23  2.300                                             
     0     -5.6591502     23  2.300                                             
     0     -1.5561433     23  2.300                                             
     1     -2.7211652     23  2.300                                             
     1      8.3548275     23  2.300                                             
  local pseudopotential read in
  partial core-charges read in
  partial kinetic energy density read in
  atomic valenz-charges read in
  non local Contribution for L=           2  read in
    real space projection operators read in
  non local Contribution for L=           2  read in
    real space projection operators read in
  non local Contribution for L=           0  read in
    real space projection operators read in
  non local Contribution for L=           0  read in
    real space projection operators read in
  non local Contribution for L=           1  read in
    real space projection operators read in
  non local Contribution for L=           1  read in
    real space projection operators read in
    PAW grid and wavefunctions read in

   number of l-projection  operators is LMAX  =           6
   number of lm-projection operators is LMMAX =          18

 POTCAR:    PAW_PBE Te 08Apr2002                  
   VRHFIN =Te: s2p4                                                             
   LEXCH  = PE                                                                  
   EATOM  =   223.2721 eV,   16.4100 Ry                                         
                                                                                
   TITEL  = PAW_PBE Te 08Apr2002                                                
   LULTRA =        F    use ultrasoft PP ?                                      
   IUNSCR =        1    unscreen: 0-lin 1-nonlin 2-no                           
   RPACOR =    2.200    partial core radius                                     
   POMASS =  127.600; ZVAL   =    6.000    mass and valenz                      
   RCORE  =    2.300    outmost cutoff radius                                   
   RWIGS  =    2.900; RWIGS  =    1.535    wigner-seitz radius (au A)           
   ENMAX  =  174.982; ENMIN  =  131.236 eV                                      
   ICORE  =        3    local potential                                         
   LCOR   =        T    correct aug charges                                     
   LPAW   =        T    paw PP                                                  
   EAUG   =  368.792                                                            
   DEXC   =    0.000                                                            
   RMAX   =    2.345    core radius for proj-oper                               
   RAUG   =    1.300    factor for augmentation sphere                          
   RDEP   =    2.397    radius for radial grids                                 
   RDEPT  =    2.174    core radius for aug-charge                              
                                                                                
   Atomic configuration                                                         
   13 entries                                                                   
     n  l   j            E        occ.                                          
     1  0  0.50    -31621.2075   2.0000                                         
     2  0  0.50     -4848.7941   2.0000                                         
     2  1  1.50     -4352.1960   6.0000                                         
     3  0  0.50      -964.9612   2.0000                                         
     3  1  1.50      -803.6179   6.0000                                         
     3  2  2.50      -559.8710  10.0000                                         
     4  0  0.50      -164.3522   2.0000                                         
     4  1  1.50      -114.3756   6.0000                                         
     4  2  2.50       -41.6483  10.0000                                         
     5  0  0.50       -15.1072   2.0000                                         
     5  1  0.50        -5.9526   4.0000                                         
     5  2  1.50        -5.4423   0.0000                                         
     4  3  2.50        -5.4423   0.0000                                         
   Description                                                                  
     l       E           TYP  RCUT    TYP  RCUT                                 
     0    -15.1072389     23  2.300                                             
     0    -16.4678215     23  2.300                                             
     1     -5.9526306     23  2.300                                             
     1     -2.4873968     23  2.300                                             
     2     -5.4423304     23  2.300                                             
     3     -1.3605826     23  2.300                                             
  local pseudopotential read in
  partial core-charges read in
  partial kinetic energy density read in
  atomic valenz-charges read in
  non local Contribution for L=           0  read in
    real space projection operators read in
  non local Contribution for L=           0  read in
    real space projection operators read in
  non local Contribution for L=           1  read in
    real space projection operators read in
  non local Contribution for L=           1  read in
    real space projection operators read in
  non local Contribution for L=           2  read in
    real space projection operators read in
    PAW grid and wavefunctions read in

   number of l-projection  operators is LMAX  =           5
   number of lm-projection operators is LMMAX =          13


 ----------------------------------------------------------------------------- 
|                                                                             |
|  ADVICE TO THIS USER RUNNING 'VASP/VAMP'   (HEAR YOUR MASTER'S VOICE ...):  |
|                                                                             |
|      You have a (more or less) 'large supercell' and for larger cells       |
|      it might be more efficient to use real space projection opertators     |
|      So try LREAL= Auto  in the INCAR   file.                               |
|      Mind:          For very  accurate calculation you might also keep the  |
|      reciprocal projection scheme          (i.e. LREAL=.FALSE.)             |
|                                                                             |
 ----------------------------------------------------------------------------- 

  PAW_PBE Cd 06Sep2000                  :
 energy of atom  1       EATOM=-1293.1815
 kinetic energy error for atom=    0.0084 (will be added to EATOM!!)
  PAW_PBE Te 08Apr2002                  :
 energy of atom  2       EATOM= -223.2721
 kinetic energy error for atom=    0.0008 (will be added to EATOM!!)


 POSCAR: Cd33 Te32                               
  positions in direct lattice
  No initial velocities read in
 exchange correlation table for  LEXCH =        8
   RHO(1)=    0.500       N(1)  =     2000
   RHO(2)=  100.500       N(2)  =     4000



--------------------------------------------------------------------------------------------------------


 ion  position               nearest neighbor table
   1  0.004  0.996  0.004-  44 2.79  35 2.93  54 2.93  65 2.93  33 2.94
   2  0.001  0.999  0.497-  55 2.82  34 2.82  64 2.82  45 2.84
   3  0.001  0.503  0.001-  63 2.82  56 2.82  37 2.82  42 2.84
   4  1.000  0.501  0.499-  57 2.82  62 2.82  36 2.82  43 2.84
   5  0.497  0.999  0.001-  39 2.82  50 2.82  61 2.82  48 2.84
   6  0.499  0.000  0.499-  38 2.82  51 2.82  60 2.82  49 2.84
   7  0.499  0.501  1.000-  41 2.82  59 2.82  52 2.82  46 2.84
   8  0.501  0.499  0.501-  47 2.82  40 2.83  53 2.83  58 2.83
   9  0.001  0.251  0.253-  54 2.82  34 2.82  62 2.82  42 2.84
  10  0.004  0.254  0.746-  43 2.79  35 2.93  55 2.93  63 2.93  33 2.94
  11  1.000  0.749  0.251-  56 2.82  64 2.82  36 2.82  44 2.84
  12  0.001  0.747  0.749-  65 2.82  57 2.82  37 2.82  45 2.84
  13  0.499  0.250  0.251-  38 2.82  50 2.82  58 2.82  46 2.84
  14  0.497  0.251  0.749-  39 2.82  51 2.82  59 2.82  47 2.84
  15  0.501  0.751  0.249-  48 2.82  40 2.83  52 2.83  60 2.83
  16  0.499  0.749  0.750-  41 2.82  61 2.82  53 2.82  49 2.84
  17  0.251  0.000  0.251-  34 2.82  50 2.82  60 2.82  44 2.84
  18  0.253  0.999  0.749-  35 2.82  51 2.82  61 2.82  45 2.84
  19  0.249  0.499  0.249-  42 2.82  36 2.83  52 2.83  58 2.83
  20  0.251  0.501  0.750-  37 2.82  59 2.82  53 2.82  43 2.84
  21  0.749  0.999  0.253-  54 2.82  38 2.82  64 2.82  48 2.84
  22  0.746  0.996  0.746-  49 2.79  39 2.93  55 2.93  65 2.93  33 2.94
  23  0.750  0.501  0.251-  56 2.82  62 2.82  40 2.82  46 2.84
  24  0.749  0.503  0.749-  63 2.82  57 2.82  41 2.82  47 2.84
  25  0.253  0.251  0.001-  35 2.82  50 2.82  59 2.82  42 2.84
  26  0.251  0.250  0.499-  34 2.82  51 2.82  58 2.82  43 2.84
  27  0.251  0.749  1.000-  37 2.82  61 2.82  52 2.82  44 2.84
  28  0.249  0.751  0.501-  45 2.82  36 2.83  53 2.83  60 2.83
  29  0.746  0.254  0.004-  46 2.79  39 2.93  54 2.93  63 2.93  33 2.94
  30  0.749  0.251  0.497-  55 2.82  38 2.82  62 2.82  47 2.84
  31  0.749  0.747  0.001-  65 2.82  56 2.82  41 2.82  48 2.84
  32  0.750  0.749  0.499-  57 2.82  64 2.82  40 2.82  49 2.84
  33  0.875  0.125  0.875-   1 2.94  10 2.94  22 2.94  29 2.94  35 3.37  39 3.37  54 3.37  55 3.37
                            63 3.37  65 3.37
  34  0.127  0.125  0.375-  17 2.82  26 2.82   2 2.82   9 2.82
  35  0.133  0.125  0.875-  18 2.82  25 2.82  10 2.93   1 2.93  33 3.37
  36  0.126  0.625  0.375-   4 2.82  11 2.82  19 2.83  28 2.83
  37  0.127  0.625  0.875-  20 2.82  27 2.82   3 2.82  12 2.82
  38  0.623  0.125  0.375-  13 2.82   6 2.82  21 2.82  30 2.82
  39  0.617  0.125  0.875-  14 2.82   5 2.82  22 2.93  29 2.93  33 3.37
  40  0.624  0.625  0.375-  23 2.82  32 2.82   8 2.83  15 2.83
  41  0.623  0.625  0.875-   7 2.82  16 2.82  31 2.82  24 2.82
  42  0.125  0.375  0.125-  19 2.82   9 2.84  25 2.84   3 2.84
  43  0.127  0.377  0.623-  10 2.79   4 2.84  26 2.84  20 2.84
  44  0.127  0.873  0.127-   1 2.79  11 2.84  17 2.84  27 2.84
  45  0.125  0.875  0.625-  28 2.82  18 2.84   2 2.84  12 2.84
  46  0.623  0.377  0.127-  29 2.79  13 2.84  23 2.84   7 2.84
  47  0.625  0.375  0.625-   8 2.82  14 2.84  24 2.84  30 2.84
  48  0.625  0.875  0.125-  15 2.82  21 2.84   5 2.84  31 2.84
  49  0.623  0.873  0.623-  22 2.79  32 2.84   6 2.84  16 2.84
  50  0.375  0.125  0.127-  17 2.82  13 2.82   5 2.82  25 2.82
  51  0.375  0.125  0.623-   6 2.82  26 2.82  18 2.82  14 2.82
  52  0.375  0.625  0.126-   7 2.82  27 2.82  19 2.83  15 2.83
  53  0.375  0.625  0.624-  16 2.82  20 2.82   8 2.83  28 2.83
  54  0.875  0.125  0.133-   9 2.82  21 2.82   1 2.93  29 2.93  33 3.37
  55  0.875  0.125  0.617-  30 2.82   2 2.82  22 2.93  10 2.93  33 3.37
  56  0.875  0.625  0.127-  11 2.82  23 2.82   3 2.82  31 2.82
  57  0.875  0.625  0.623-   4 2.82  32 2.82  12 2.82  24 2.82
  58  0.375  0.376  0.375-  26 2.82  13 2.82  19 2.83   8 2.83
  59  0.375  0.377  0.875-   7 2.82  20 2.82  14 2.82  25 2.82
  60  0.375  0.874  0.375-   6 2.82  17 2.82  15 2.83  28 2.83
  61  0.375  0.873  0.875-  16 2.82  27 2.82   5 2.82  18 2.82
  62  0.875  0.377  0.375-   4 2.82  23 2.82   9 2.82  30 2.82
  63  0.875  0.383  0.875-  24 2.82   3 2.82  10 2.93  29 2.93  33 3.37
  64  0.875  0.873  0.375-  11 2.82  32 2.82   2 2.82  21 2.82
  65  0.875  0.867  0.875-  12 2.82  31 2.82   1 2.93  22 2.93  33 3.37


IMPORTANT INFORMATION: All symmetrisations will be switched off!
NOSYMM: (Re-)initialisation of all symmetry stuff for point group C_1.



 KPOINTS: Automatically generated mesh            
  k-points in reciprocal lattice
Space group operators:
 irot       det(A)        alpha          n_x          n_y          n_z        tau_x        tau_y        tau_z
    1     1.000000     0.000000     1.000000     0.000000     0.000000     0.000000     0.000000     0.000000

 ----------------------------------------------------------------------------- 
|                                                                             |
|           W    W    AA    RRRRR   N    N  II  N    N   GGGG   !!!           |
|           W    W   A  A   R    R  NN   N  II  NN   N  G    G  !!!           |
|           W    W  A    A  R    R  N N  N  II  N N  N  G       !!!           |
|           W WW W  AAAAAA  RRRRR   N  N N  II  N  N N  G  GGG   !            |
|           WW  WW  A    A  R   R   N   NN  II  N   NN  G    G                |
|           W    W  A    A  R    R  N    N  II  N    N   GGGG   !!!           |
|                                                                             |
|      Your generating k-point grid is not commensurate to the symmetry       |
|      of the lattice.  This can cause   slow convergence with respect        |
|      to k-points for HF type calculations                                   |
|      suggested SOLUTIONS:                                                   |
|       ) if not already the case, use automatic k-point generation           |
|       ) shift your grid to Gamma (G) (e.g. required for hex or fcc lattice) |
|                                                                             |
 ----------------------------------------------------------------------------- 

 
 Subroutine IBZKPT_HF returns following result:
 ==============================================
 
 Found      8 k-points in 1st BZ
 the following      8 k-points will be used (e.g. in the exchange kernel)
 Following reciprocal coordinates:   # in IRBZ
  0.000000  0.000000  0.000000    0.12500000   1 t-inv F
  0.500000  0.000000  0.000000    0.12500000   2 t-inv F
  0.000000  0.500000  0.000000    0.12500000   3 t-inv F
  0.500000  0.500000  0.000000    0.12500000   4 t-inv F
  0.000000  0.000000  0.500000    0.12500000   5 t-inv F
  0.500000  0.000000  0.500000    0.12500000   6 t-inv F
  0.000000  0.500000  0.500000    0.12500000   7 t-inv F
  0.500000  0.500000  0.500000    0.12500000   8 t-inv F


--------------------------------------------------------------------------------------------------------




 Dimension of arrays:
   k-points           NKPTS =      8   k-points in BZ     NKDIM =      8   number of bands    NBANDS=    800
   number of dos      NEDOS =   2000   number of ions     NIONS =     65
   non local maximal  LDIM  =      6   non local SUM 2l+1 LMDIM =     18
   total plane-waves  NPLWV = 884736
   max r-space proj   IRMAX =      1   max aug-charges    IRDMAX= 183854
   dimension x,y,z NGX =    96 NGY =   96 NGZ =   96
   dimension x,y,z NGXF=   192 NGYF=  192 NGZF=  192
   support grid    NGXF=   384 NGYF=  384 NGZF=  384
   ions per type =              33  32
   NGX,Y,Z   is equivalent  to a cutoff of  12.20, 12.20, 12.20 a.u.
   NGXF,Y,Z  is equivalent  to a cutoff of  24.39, 24.39, 24.39 a.u.

 SYSTEM =  unknown system                          
 POSCAR =  Cd33 Te32                               

 Startparameter for this run:
   NWRITE =      2    write-flag & timer
   PREC   = accura    normal or accurate (medium, high low for compatibility)
   ISTART =      0    job   : 0-new  1-cont  2-samecut
   ICHARG =      1    charge: 1-file 2-atom 10-const
   ISPIN  =      1    spin polarized calculation?
   LNONCOLLINEAR =      T non collinear calculations
   LSORBIT =      T    spin-orbit coupling
   INIWAV =      1    electr: 0-lowe 1-rand  2-diag
   LASPH  =      T    aspherical Exc in radial PAW
   METAGGA=      F    non-selfconsistent MetaGGA calc.

 Electronic Relaxation 1
   ENCUT  =  450.0 eV  33.07 Ry    5.75 a.u.  22.64 22.64 22.64*2*pi/ulx,y,z
   ENINI  =  450.0     initial cutoff
   ENAUG  =  456.1 eV  augmentation charge cutoff
   NELM   =      6;   NELMIN=  2; NELMDL= -5     # of ELM steps 
   EDIFF  = 0.1E-05   stopping-criterion for ELM
   LREAL  =      F    real-space projection
   NLSPLINE    = F    spline interpolate recip. space projectors
   LCOMPAT=      F    compatible to vasp.4.4
   GGA_COMPAT  = T    GGA compatible to vasp.4.4-vasp.4.6
   LMAXPAW     = -100 max onsite density
   LMAXMIX     =    2 max onsite mixed and CHGCAR
   VOSKOWN=      0    Vosko Wilk Nusair interpolation
   ROPT   =    0.00000   0.00000
 Ionic relaxation
   EDIFFG = -.1E-01   stopping-criterion for IOM
   NSW    =      0    number of steps for IOM
   NBLOCK =      1;   KBLOCK =      1    inner block; outer block 
   IBRION =     -1    ionic relax: 0-MD 1-quasi-New 2-CG
   NFREE  =      0    steps in history (QN), initial steepest desc. (CG)
   ISIF   =      2    stress and relaxation
   IWAVPR =     10    prediction:  0-non 1-charg 2-wave 3-comb
   ISYM   =      0    0-nonsym 1-usesym 2-fastsym
   LCORR  =      T    Harris-Foulkes like correction to forces

   POTIM  = 0.5000    time-step for ionic-motion
   TEIN   =    0.0    initial temperature
   TEBEG  =    0.0;   TEEND  =   0.0 temperature during run
   SMASS  =  -3.00    Nose mass-parameter (am)
   estimated Nose-frequenzy (Omega)   =  0.10E-29 period in steps =****** mass=  -0.391E-26a.u.
   SCALEE = 1.0000    scale energy and forces
   NPACO  =    256;   APACO  = 16.0  distance and # of slots for P.C.
   PSTRESS=    0.0 pullay stress

  Mass of Ions in am
   POMASS = 112.41127.60
  Ionic Valenz
   ZVAL   =  12.00  6.00
  Atomic Wigner-Seitz radii
   RWIGS  =  -1.00 -1.00
  virtual crystal weights 
   VCA    =   1.00  1.00
   NELECT =     588.0000    total number of electrons
   NUPDOWN=      -1.0000    fix difference up-down

 DOS related values:
   EMIN   =  10.00;   EMAX   =-10.00  energy-range for DOS
   EFERMI =   0.00
   ISMEAR =     0;   SIGMA  =   0.05  broadening in eV -4-tet -1-fermi 0-gaus

 Electronic relaxation 2 (details)
   IALGO  =     58    algorithm
   LDIAG  =      T    sub-space diagonalisation (order eigenvalues)
   LSUBROT=      F    optimize rotation matrix (better conditioning)
   TURBO    =      0    0=normal 1=particle mesh
   IRESTART =      0    0=no restart 2=restart with 2 vectors
   NREBOOT  =      0    no. of reboots
   NMIN     =      0    reboot dimension
   EREF     =   0.00    reference energy to select bands
   IMIX   =      4    mixing-type and parameters
     AMIX     =   0.40;   BMIX     =  1.00
     AMIX_MAG =   1.60;   BMIX_MAG =  1.00
     AMIN     =   0.10
     WC   =   100.;   INIMIX=   1;  MIXPRE=   1;  MAXMIX= -45

 Intra band minimization:
   WEIMIN = 0.0000     energy-eigenvalue tresh-hold
   EBREAK =  0.31E-09  absolut break condition
   DEPER  =   0.30     relativ break condition  

   TIME   =   0.40     timestep for ELM

  volume/ion in A,a.u.               =      34.48       232.69
  Fermi-wavevector in a.u.,A,eV,Ry     =   1.048017  1.980464 14.943809  1.098339
  Thomas-Fermi vector in A             =   2.182921

 Write flags
   LWAVE        =      T    write WAVECAR
   LDOWNSAMPLE  =      F    k-point downsampling of WAVECAR
   LCHARG       =      T    write CHGCAR
   LVTOT        =      F    write LOCPOT, total local potential
   LVHAR        =      T    write LOCPOT, Hartree potential only
   LELF         =      F    write electronic localiz. function (ELF)
   LORBIT       =     11    0 simple, 1 ext, 2 COOP (PROOUT), +10 PAW based schemes


 Dipole corrections
   LMONO  =      F    monopole corrections only (constant potential shift)
   LDIPOL =      F    correct potential (dipole corrections)
   IDIPOL =      0    1-x, 2-y, 3-z, 4-all directions 
   EPSILON=  1.0000000 bulk dielectric constant

 Exchange correlation treatment:
   GGA     =    --    GGA type
   LEXCH   =     8    internal setting for exchange type
   VOSKOWN=      0    Vosko Wilk Nusair interpolation
   EXXOEP  =     0    0=HF, 1=EXX-LHF (local Hartree Fock) 2=EXX OEP
   LHFCALC =     T    Hartree Fock is set to
   LSYMGRAD=     F    symmetrize gradient (conserves proper symmetry)
   PRECFOCK=fast      Normal, Fast or Accurate (Low or Medium for compatibility)
   LRHFCALC=     F    long range Hartree Fock
   LRSCOR  =     F    long range correlation only (use DFT for short range part)
   LTHOMAS =     F    Thomas Fermi screening in HF
   LMODELHF=     F    short range full HF, long range fraction AEXX
   ENCUT4O =  -1.0   cutoff for four orbital integrals eV
   LMAXFOCK=     4    L truncation for augmentation on plane wave grid
   LMAXFOCKAE=  -1    L truncation for all-electron charge restoration on plane wave grid
   NMAXFOCKAE=   1    number of basis functions for all-electron charge restoration
   LFOCKAEDFT=     F  apply the AE augmentation even for DFT
   NKREDX  =     1    reduce k-point grid by
   NKREDY  =     1    reduce k-point grid by
   NKREDZ  =     1    reduce k-point grid by
   SHIFTRED=     F    shift reduced grid of Gamma
   HFKIDENT=     F    idential grid for each k-point
   ODDONLY =     F    use only odd q-grid points
   EVENONLY=     F    use only even q-grid points
   HFALPHA =   -1.0000 decay constant for conv. correction
   MCALPHA =    0.0000 extent of test-charge in conv. correction in multipole expansion
   AEXX    =    0.2500 exact exchange contribution
   HFSCREEN=    0.2000 screening length (either q_TF or 0.3 A-1)
   HFSCREENC=   0.2000 screening length for correlation (either q_TF or 0.3 A-1)
   HFRCUT  =    0.0000 spherical cutoff for potential kernel
   ALDAX   =    0.7500 LDA exchange part
   AGGAX   =    0.7500 GGA exchange part
   ALDAC   =    1.0000 LDA correlation
   AGGAC   =    1.0000 GGA correlation
   ENCUTFOCK=  -1.0 apply spherical cutoff to Coloumb kernel
   NBANDSGWLOW=     1    first orbital included in HF term
   NBLOCK_FOCK=    64    blocking factor in FOCK_ACC
 Linear response parameters
   LEPSILON=     F    determine dielectric tensor
   LRPA    =     F    only Hartree local field effects (RPA)
   LNABLA  =     F    use nabla operator in PAW spheres
   LVEL    =     F    velocity operator in full k-point grid
   LINTERFAST=   F  fast interpolation
   KINTER  =     0    interpolate to denser k-point grid
   CSHIFT  =0.1000    complex shift for real part using Kramers Kronig
   OMEGAMAX=  -1.0    maximum frequency
   DEG_THRESHOLD= 0.2000000E-02 threshold for treating states as degnerate
   RTIME   =   -0.100 relaxation time in fs
  (WPLASMAI=    0.000 imaginary part of plasma frequency in eV, 0.658/RTIME)
   DFIELD  = 0.0000000 0.0000000 0.0000000 field for delta impulse in time

 Orbital magnetization related:
   ORBITALMAG=     F  switch on orbital magnetization
   LCHIMAG   =     F  perturbation theory with respect to B field
   DQ        =  0.001000  dq finite difference perturbation B field
   LLRAUG    =     F  two centre corrections for induced B field



--------------------------------------------------------------------------------------------------------


 Static calculation
 charge density and potential will be updated during run
 non collinear spin polarized calculation
 Conjugate gradient for all bands (Freysoldt, et al. PRB 79, 241103 (2009))
 preconditioned conjugated gradient                                        
 perform sub-space diagonalisation
    before iterative eigenvector-optimisation
 modified Broyden-mixing scheme, WC =      100.0
 initial mixing is a Kerker type mixing with AMIX =  0.4000 and BMIX =      1.0000
 Hartree-type preconditioning will be used
 using additional bands          506
 reciprocal scheme for non local part
 use partial core corrections
 no Harris-corrections to forces 
 use gradient corrections 
 use of overlap-Matrix (Vanderbilt PP)
 Gauss-broadening in eV      SIGMA  =   0.05


--------------------------------------------------------------------------------------------------------


  energy-cutoff  :      450.00
  volume of cell :     2241.29
      direct lattice vectors                 reciprocal lattice vectors
    13.086768000  0.000000000  0.000000000     0.076413061  0.000000000  0.000000000
     0.000000000 13.086768000  0.000000000     0.000000000  0.076413061  0.000000000
     0.000000000  0.000000000 13.086768000     0.000000000  0.000000000  0.076413061

  length of vectors
    13.086768000 13.086768000 13.086768000     0.076413061  0.076413061  0.076413061



 k-points in units of 2pi/SCALE and weight: Automatically generated mesh            
   0.00000000  0.00000000  0.00000000       0.125
   0.03820653  0.00000000  0.00000000       0.125
   0.00000000  0.03820653  0.00000000       0.125
   0.03820653  0.03820653  0.00000000       0.125
   0.00000000  0.00000000  0.03820653       0.125
   0.03820653  0.00000000  0.03820653       0.125
   0.00000000  0.03820653  0.03820653       0.125
   0.03820653  0.03820653  0.03820653       0.125

 k-points in reciprocal lattice and weights: Automatically generated mesh            
   0.00000000  0.00000000  0.00000000       0.125
   0.50000000  0.00000000  0.00000000       0.125
   0.00000000  0.50000000  0.00000000       0.125
   0.50000000  0.50000000  0.00000000       0.125
   0.00000000  0.00000000  0.50000000       0.125
   0.50000000  0.00000000  0.50000000       0.125
   0.00000000  0.50000000  0.50000000       0.125
   0.50000000  0.50000000  0.50000000       0.125

 position of ions in fractional coordinates (direct lattice) 
   0.00448500  0.99551500  0.00448500
   0.00124700  0.99875300  0.49695900
   0.00124700  0.50304100  0.00124700
   0.99962500  0.50121800  0.49878200
   0.49695900  0.99875300  0.00124700
   0.49878100  0.00037500  0.49878100
   0.49878100  0.50121900  0.99962500
   0.50052800  0.49947200  0.50052800
   0.00124700  0.25124700  0.25304000
   0.00448600  0.25448500  0.74551500
   0.99962500  0.74878200  0.25121800
   0.00124700  0.74695900  0.74875300
   0.49878200  0.24962500  0.25121900
   0.49696000  0.25124700  0.74875300
   0.50052800  0.75052800  0.24947200
   0.49878100  0.74878100  0.75037500
   0.25121900  0.00037500  0.25121900
   0.25304000  0.99875300  0.74875300
   0.24947200  0.49947200  0.24947200
   0.25121900  0.50121900  0.75037500
   0.74875300  0.99875300  0.25304000
   0.74551400  0.99551500  0.74551500
   0.75037500  0.50121900  0.25121900
   0.74875300  0.50304000  0.74875300
   0.25304000  0.25124700  0.00124700
   0.25121900  0.24962500  0.49878100
   0.25121900  0.74878100  0.99962500
   0.24947200  0.75052800  0.50052800
   0.74551400  0.25448500  0.00448500
   0.74875300  0.25124700  0.49696000
   0.74875300  0.74695900  0.00124700
   0.75037500  0.74878200  0.49878200
   0.87500000  0.12500000  0.87500000
   0.12665600  0.12500000  0.37500000
   0.13277900  0.12500000  0.87500000
   0.12589200  0.62500000  0.37500000
   0.12665600  0.62500000  0.87500000
   0.62334400  0.12500000  0.37500000
   0.61722100  0.12500000  0.87500000
   0.62410800  0.62500000  0.37500000
   0.62334400  0.62500000  0.87500000
   0.12484800  0.37484800  0.12484800
   0.12748800  0.37748800  0.62251200
   0.12748800  0.87251200  0.12748800
   0.12484800  0.87515200  0.62515200
   0.62251200  0.37748800  0.12748800
   0.62515200  0.37484800  0.62515200
   0.62515200  0.87515200  0.12484800
   0.62251200  0.87251200  0.62251200
   0.37500000  0.12500000  0.12665600
   0.37500000  0.12500000  0.62334400
   0.37500000  0.62500000  0.12589200
   0.37500000  0.62500000  0.62410800
   0.87500000  0.12500000  0.13277900
   0.87500000  0.12500000  0.61722100
   0.87500000  0.62500000  0.12665600
   0.87500000  0.62500000  0.62334400
   0.37500000  0.37589200  0.37500000
   0.37500000  0.37665600  0.87500000
   0.37500000  0.87410800  0.37500000
   0.37500000  0.87334400  0.87500000
   0.87500000  0.37665600  0.37500000
   0.87500000  0.38277900  0.87500000
   0.87500000  0.87334400  0.37500000
   0.87500000  0.86722100  0.87500000

 position of ions in cartesian coordinates  (Angst):
   0.05869415 13.02807385  0.05869415
   0.01631920 13.07044880  6.50358714
   0.01631920  6.58318086  0.01631920
  13.08186046  6.55932368  6.52744432
   6.50358714 13.07044880  0.01631920
   6.52743123  0.00490754  6.52743123
   6.52743123  6.55933677 13.08186046
   6.55029381  6.53647419  6.55029381
   0.01631920  3.28801120  3.31147577
   0.05870724  3.33038615  9.75638185
  13.08186046  9.79913632  3.28763168
   0.01631920  9.77527914  9.79875680
   6.52744432  3.26678446  3.28764477
   6.50360023  3.28801120  9.79875680
   6.55029381  9.82198581  3.26478219
   6.52743123  9.79912323  9.81998354
   3.28764477  0.00490754  3.28764477
   3.31147577 13.07044880  9.79875680
   3.26478219  6.53647419  3.26478219
   3.28764477  6.55933677  9.81998354
   9.79875680 13.07044880  3.31147577
   9.75636876 13.02807385  9.75638185
   9.81998354  6.55933677  3.28764477
   9.79875680  6.58316777  9.79875680
   3.31147577  3.28801120  0.01631920
   3.28764477  3.26678446  6.52743123
   3.28764477  9.79912323 13.08186046
   3.26478219  9.82198581  6.55029381
   9.75636876  3.33038615  0.05869415
   9.79875680  3.28801120  6.50360023
   9.79875680  9.77527914  0.01631920
   9.81998354  9.79913632  6.52744432
  11.45092200  1.63584600 11.45092200
   1.65751769  1.63584600  4.90753800
   1.73764797  1.63584600 11.45092200
   1.64751940  8.17923000  4.90753800
   1.65751769  8.17923000 11.45092200
   8.15755831  1.63584600  4.90753800
   8.07742803  1.63584600 11.45092200
   8.16755660  8.17923000  4.90753800
   8.15755831  8.17923000 11.45092200
   1.63385681  4.90554881  1.63385681
   1.66840588  4.94009788  8.14667012
   1.66840588 11.41836212  1.66840588
   1.63385681 11.45291119  8.18121919
   8.14667012  4.94009788  1.66840588
   8.18121919  4.90554881  8.18121919
   8.18121919 11.45291119  1.63385681
   8.14667012 11.41836212  8.14667012
   4.90753800  1.63584600  1.65751769
   4.90753800  1.63584600  8.15755831
   4.90753800  8.17923000  1.64751940
   4.90753800  8.17923000  8.16755660
  11.45092200  1.63584600  1.73764797
  11.45092200  1.63584600  8.07742803
  11.45092200  8.17923000  1.65751769
  11.45092200  8.17923000  8.15755831
   4.90753800  4.91921140  4.90753800
   4.90753800  4.92920969 11.45092200
   4.90753800 11.43924860  4.90753800
   4.90753800 11.42925031 11.45092200
  11.45092200  4.92920969  4.90753800
  11.45092200  5.00933997 11.45092200
  11.45092200 11.42925031  4.90753800
  11.45092200 11.34912003 11.45092200

 Euler angles ALPHA=     0.0000000  BETA=     0.0000000

 transformation matrix from SAXIS to cartesian coordinates
 ---------------------------------------------------------
     1.0000000 m_x    -0.0000000 m_y     0.0000000 m_z
     0.0000000 m_x     1.0000000 m_y     0.0000000 m_z
    -0.0000000 m_x     0.0000000 m_y     1.0000000 m_z

 transformation matrix from cartesian coordinates to SAXIS
 ---------------------------------------------------------
     1.0000000 m_x     0.0000000 m_y    -0.0000000 m_z
    -0.0000000 m_x     1.0000000 m_y     0.0000000 m_z
     0.0000000 m_x     0.0000000 m_y     1.0000000 m_z




--------------------------------------------------------------------------------------------------------


 k-point  1 :   0.0000 0.0000 0.0000  plane waves:   97002
 k-point  2 :   0.5000 0.0000 0.0000  plane waves:   97356
 k-point  3 :   0.0000 0.5000 0.0000  plane waves:   97356
 k-point  4 :   0.5000 0.5000 0.0000  plane waves:   96960
 k-point  5 :   0.0000 0.0000 0.5000  plane waves:   97356
 k-point  6 :   0.5000 0.0000 0.5000  plane waves:   96960
 k-point  7 :   0.0000 0.5000 0.5000  plane waves:   96960
 k-point  8 :   0.5000 0.5000 0.5000  plane waves:   96832

 maximum and minimum number of plane-waves per node :      3116     2976

 maximum number of plane-waves:     97356
 maximum index in each direction: 
   IXMAX=   22   IYMAX=   22   IZMAX=   22
   IXMIN=  -23   IYMIN=  -23   IZMIN=  -23


 parallel 3D FFT for wavefunctions:
    minimum data exchange during FFTs selected (reduces bandwidth)
 parallel 3D FFT for charge:
    minimum data exchange during FFTs selected (reduces bandwidth)


 FFT grid for exact exchange (Hartree Fock) 
  NGX = 48; NGY = 48; NGZ = 48


 Radii for the augmentation spheres in the non-local exchange
 for species   1 augmentation radius   1.444 (default was   1.070)
       energy cutoff for augmentation   1800.0
 for species   2 augmentation radius   1.606 (default was   1.190)
       energy cutoff for augmentation   1800.0

 real space projection operators:
  total allocation   :       9375.20 KBytes
  max/ min on nodes  :        432.62        141.21

 Maximum index for augmentation-charges in exchange           97
  SETUP_FOCK is finished

 total amount of memory used by VASP MPI-rank0    86523. kBytes
=======================================================================

   base      :      30000. kBytes
   nonl-proj :       5136. kBytes
   fftplans  :       6542. kBytes
   grid      :      12386. kBytes
   one-center:        186. kBytes
   HF        :        129. kBytes
   nonlr-proj:       1424. kBytes
   wavefun   :      30720. kBytes

     INWAV:  cpu time    0.0001: real time    0.0002
 Broyden mixing: mesh for mixing (old mesh)
   NGX = 45   NGY = 45   NGZ = 45
  (NGX  =192   NGY  =192   NGZ  =192)
  gives a total of  91125 points

 initial charge density was supplied:
 charge density of overlapping atoms calculated
 number of electron     588.0000000 magnetization      65.0000000     65.0000000     65.0000000
 keeping initial charge density in first step


--------------------------------------------------------------------------------------------------------


 Maximum index for augmentation-charges         3093 (set IRDMAX)


--------------------------------------------------------------------------------------------------------


 First call to EWALD:  gamma=   0.135
 Maximum number of real-space cells 3x 3x 3
 Maximum number of reciprocal cells 3x 3x 3

    FEWALD:  cpu time    0.0043: real time    0.0044


--------------------------------------- Iteration      1(   1)  ---------------------------------------


    POTLOK:  cpu time    0.5001: real time    0.5026
    SETDIJ:  cpu time    1.7019: real time    1.7027
    TRIAL :  cpu time    5.7346: real time    5.8036
    CORREC:  cpu time    0.0016: real time    0.0016
    --------------------------------------------
      LOOP:  cpu time    8.0353: real time    8.1076

 eigenvalue-minimisations  : 12800
 total energy-change (2. order) : 0.4569631E+04  (-0.2546581E+05)
 number of electron     588.0000000 magnetization      65.0000000     65.0000000     65.0000000
 augmentation part      588.0000000 magnetization      65.0000000     65.0000000     65.0000000

 Free energy of the ion-electron system (eV)
  ---------------------------------------------------
  alpha Z        PSCENC =      1642.45118531
  Ewald energy   TEWEN  =    -33940.17512420
  -Hartree energ DENC   =    -17077.89199325
  -exchange      EXHF   =         0.00000000
  -V(xc)+E(xc)   XCENC  =      -617.56595420
  PAW double counting   =     46020.13618675   -43994.38451620
  entropy T*S    EENTRO =        -0.03066134
  eigenvalues    EBANDS =      2787.66682767
  atomic energy  EATOM  =     49749.42546356
  ---------------------------------------------------
  free energy    TOTEN  =      4569.63141412 eV

  energy without entropy =     4569.66207546  energy(sigma->0) =     4569.64674479
  exchange ACFDT corr.  =         0.00000000  see jH, gK, PRB 81, 115126


--------------------------------------------------------------------------------------------------------




--------------------------------------- Iteration      1(   2)  ---------------------------------------


    TRIAL :  cpu time    6.0887: real time    6.0912
    CORREC:  cpu time    0.0037: real time    0.0037
    --------------------------------------------
      LOOP:  cpu time    6.1056: real time    6.1239

 eigenvalue-minimisations  : 13952
 total energy-change (2. order) :-0.3403211E+04  (-0.3247145E+04)
 number of electron     588.0000000 magnetization      65.0000000     65.0000000     65.0000000
 augmentation part      588.0000000 magnetization      65.0000000     65.0000000     65.0000000

 Free energy of the ion-electron system (eV)
  ---------------------------------------------------
  alpha Z        PSCENC =      1642.45118531
  Ewald energy   TEWEN  =    -33940.17512420
  -Hartree energ DENC   =    -17077.89199325
  -exchange      EXHF   =         0.00000000
  -V(xc)+E(xc)   XCENC  =      -617.56595420
  PAW double counting   =     46020.13618675   -43994.38451620
  entropy T*S    EENTRO =        -0.01085166
  eigenvalues    EBANDS =      -615.56444628
  atomic energy  EATOM  =     49749.42546356
  ---------------------------------------------------
  free energy    TOTEN  =      1166.41994984 eV

  energy without entropy =     1166.43080150  energy(sigma->0) =     1166.42537567
  exchange ACFDT corr.  =         0.00000000  see jH, gK, PRB 81, 115126


--------------------------------------------------------------------------------------------------------




--------------------------------------- Iteration      1(   3)  ---------------------------------------


    TRIAL :  cpu time    6.6075: real time    6.6108
    CORREC:  cpu time    0.0015: real time    0.0015
    --------------------------------------------
      LOOP:  cpu time    6.6207: real time    6.6376

 eigenvalue-minimisations  : 14816
 total energy-change (2. order) :-0.2198828E+03  (-0.2174651E+03)
 number of electron     588.0000000 magnetization      65.0000000     65.0000000     65.0000000
 augmentation part      588.0000000 magnetization      65.0000000     65.0000000     65.0000000

 Free energy of the ion-electron system (eV)
  ---------------------------------------------------
  alpha Z        PSCENC =      1642.45118531
  Ewald energy   TEWEN  =    -33940.17512420
  -Hartree energ DENC   =    -17077.89199325
  -exchange      EXHF   =         0.00000000
  -V(xc)+E(xc)   XCENC  =      -617.56595420
  PAW double counting   =     46020.13618675   -43994.38451620
  entropy T*S    EENTRO =        -0.01252412
  eigenvalues    EBANDS =      -835.44558898
  atomic energy  EATOM  =     49749.42546356
  ---------------------------------------------------
  free energy    TOTEN  =       946.53713467 eV

  energy without entropy =      946.54965880  energy(sigma->0) =      946.54339674
  exchange ACFDT corr.  =         0.00000000  see jH, gK, PRB 81, 115126


--------------------------------------------------------------------------------------------------------




--------------------------------------- Iteration      1(   4)  ---------------------------------------


    TRIAL :  cpu time    6.4831: real time    6.4861
    CORREC:  cpu time    0.0014: real time    0.0014
    --------------------------------------------
      LOOP:  cpu time    6.4979: real time    6.5147

 eigenvalue-minimisations  : 14752
 total energy-change (2. order) :-0.4856543E+01  (-0.4847235E+01)
 number of electron     588.0000000 magnetization      65.0000000     65.0000000     65.0000000
 augmentation part      588.0000000 magnetization      65.0000000     65.0000000     65.0000000

 Free energy of the ion-electron system (eV)
  ---------------------------------------------------
  alpha Z        PSCENC =      1642.45118531
  Ewald energy   TEWEN  =    -33940.17512420
  -Hartree energ DENC   =    -17077.89199325
  -exchange      EXHF   =         0.00000000
  -V(xc)+E(xc)   XCENC  =      -617.56595420
  PAW double counting   =     46020.13618675   -43994.38451620
  entropy T*S    EENTRO =        -0.01278245
  eigenvalues    EBANDS =      -840.30187385
  atomic energy  EATOM  =     49749.42546356
  ---------------------------------------------------
  free energy    TOTEN  =       941.68059148 eV

  energy without entropy =      941.69337393  energy(sigma->0) =      941.68698271
  exchange ACFDT corr.  =         0.00000000  see jH, gK, PRB 81, 115126


--------------------------------------------------------------------------------------------------------




--------------------------------------- Iteration      1(   5)  ---------------------------------------


    TRIAL :  cpu time    6.7907: real time    6.7939
    CORREC:  cpu time    0.0016: real time    0.0016
    CHARGE:  cpu time    0.7636: real time    0.7647
    --------------------------------------------
      LOOP:  cpu time    7.5690: real time    7.5884

 eigenvalue-minimisations  : 15552
 total energy-change (2. order) :-0.9088679E-01  (-0.9071671E-01)
 number of electron     588.0000006 magnetization       0.6809787      0.6809809      0.6809789
 augmentation part      145.5172129 magnetization       0.5831875      0.5832139      0.5832264

 Free energy of the ion-electron system (eV)
  ---------------------------------------------------
  alpha Z        PSCENC =      1642.45118531
  Ewald energy   TEWEN  =    -33940.17512420
  -Hartree energ DENC   =    -17077.89199325
  -exchange      EXHF   =         0.00000000
  -V(xc)+E(xc)   XCENC  =      -617.56595420
  PAW double counting   =     46020.13618675   -43994.38451620
  entropy T*S    EENTRO =        -0.01278138
  eigenvalues    EBANDS =      -840.39276171
  atomic energy  EATOM  =     49749.42546356
  ---------------------------------------------------
  free energy    TOTEN  =       941.58970469 eV

  energy without entropy =      941.60248607  energy(sigma->0) =      941.59609538
  exchange ACFDT corr.  =         0.00000000  see jH, gK, PRB 81, 115126


--------------------------------------------------------------------------------------------------------




--------------------------------------- Iteration      1(   6)  ---------------------------------------


    POTLOK:  cpu time    0.4052: real time    0.4061
    SETDIJ:  cpu time    1.6911: real time    1.6915
    TRIAL :  cpu time  462.1686: real time  462.3995
    CORREC:  cpu time 1834.9987: real time 1835.7411
    EDDIAG:  cpu time  453.9498: real time  454.1342
    CHARGE:  cpu time    0.6916: real time    0.6920
    --------------------------------------------
      LOOP:  cpu time 2753.9707: real time 2755.1419

 eigenvalue-minimisations  :     0
 total energy-change (2. order) :-0.3984212E+07  (           NaN)
 number of electron             NaN magnetization             NaN            NaN            NaN
 augmentation part              NaN magnetization             NaN            NaN            NaN

 Free energy of the ion-electron system (eV)
  ---------------------------------------------------
  alpha Z        PSCENC =      1642.45118531
  Ewald energy   TEWEN  =    -33940.17512420
  -Hartree energ DENC   =    -15675.17117010
  -exchange      EXHF   =                NaN
  -V(xc)+E(xc)   XCENC  =      -655.55717460
  PAW double counting   =    120169.14076632  -118080.76075666
  entropy T*S    EENTRO =        -0.02362214
  eigenvalues    EBANDS =  -7970705.75853658
  atomic energy  EATOM  =     49749.42546356
  ---------------------------------------------------
  free energy    TOTEN  =  -3983269.95581826 eV

  energy without entropy = -3983269.93219612  energy(sigma->0) = -3983269.94400719
  exchange ACFDT corr.  =        -0.01688886  see jH, gK, PRB 81, 115126


--------------------------------------------------------------------------------------------------------


  average scaling for gradient   0.9418


 average (electrostatic) potential at core
  the test charge radii are     1.0698  1.1897
  (the norm of the test charge is              1.0000)
       1  -5.5428       2 -13.5050       3 -13.5924       4 -17.3455       5 -13.5921
       6 -16.4539       7 -16.4680       8 -18.4291       9 -13.6942      10  -5.6068
      11 -16.9744      12 -13.9375      13 -16.4926      14 -13.6373      15 -18.4353
      16 -16.5171      17 -16.2500      18 -13.4643      19 -18.2297      20 -16.3084
      21 -13.4285      22  -4.8606      23 -16.3681      24 -13.4959      25 -13.3329
      26 -16.2394      27 -16.2217      28 -18.2602      29  -4.8308      30 -13.4351
      31 -13.4298      32 -16.3315      33   5.2050      34 -90.8380      35 -82.6608
      36 -93.8928      37 -90.8802      38 -91.1933      39 -82.9846      40 -94.1047
      41 -91.2198      42 -90.4163      43 -90.1312      44 -90.0526      45 -90.5884
      46 -90.3725      47 -90.7669      48 -90.7516      49 -90.3862      50 -91.2078
      51 -91.1936      52 -94.0685      53 -94.1159      54 -82.6585      55 -82.6239
      56 -90.9427      57 -90.9913      58 -94.0059      59 -91.1405      60 -94.0046
      61 -91.1420      62 -90.8382      63 -82.4745      64 -90.7533      65 -82.5050



 E-fermi :   3.9057     XC(G=0):  -7.3038     alpha+bet : -7.2837


 k-point     1 :       0.0000    0.0000    0.0000
  band No.  band energies     occupation 
      1       3.5531      1.00000
      2       3.5531      1.00000
      3       3.5531      1.00000
      4       3.5531      1.00000
      5       3.5531      1.00000
      6       3.5531      1.00000
      7       3.5531      1.00000
      8       3.5531      1.00000
      9       3.5531      1.00000
     10       3.5531      1.00000
     11       3.5531      1.00000
     12       3.5531      1.00000
     13       3.5531      1.00000
     14       3.5531      1.00000
     15       3.5531      1.00000
     16       3.5531      1.00000
     17       3.5531      1.00000
     18       3.5531      1.00000
     19       3.5531      1.00000
     20       3.5531      1.00000
     21       3.5531      1.00000
     22       3.5531      1.00000
     23       3.5531      1.00000
     24       3.5531      1.00000
     25       3.5531      1.00000
     26       3.5531      1.00000
     27       3.5531      1.00000
     28       3.5531      1.00000
     29       3.5531      1.00000
     30       3.5531      1.00000
     31       3.5531      1.00000
     32       3.5531      1.00000
     33       3.5531      1.00000
     34       3.5531      1.00000
     35       3.5531      1.00000
     36       3.5531      1.00000
     37       3.5531      1.00000
     38       3.5531      1.00000
     39       3.5531      1.00000
     40       3.5531      1.00000
     41       3.5531      1.00000
     42       3.5531      1.00000
     43       3.5531      1.00000
     44       3.5531      1.00000
     45       3.5531      1.00000
     46       3.5531      1.00000
     47       3.5531      1.00000
     48       3.5531      1.00000
     49       3.5531      1.00000
     50       3.5531      1.00000
     51       3.5531      1.00000
     52       3.5531      1.00000
     53       3.5531      1.00000
     54       3.5531      1.00000
     55       3.5531      1.00000
     56       3.5531      1.00000
     57       3.5531      1.00000
     58       3.5531      1.00000
     59       3.5531      1.00000
     60       3.5531      1.00000
     61       3.5531      1.00000
     62       3.5531      1.00000
     63       3.5531      1.00000
     64       3.5531      1.00000
     65       3.5531      1.00000
     66       3.5531      1.00000
     67       3.5531      1.00000
     68       3.5531      1.00000
     69       3.5531      1.00000
     70       3.5531      1.00000
     71       3.5531      1.00000
     72       3.5531      1.00000
     73       3.5531      1.00000
     74       3.5531      1.00000
     75       3.5531      1.00000
     76       3.5531      1.00000
     77       3.5531      1.00000
     78       3.5531      1.00000
     79       3.5531      1.00000
     80       3.5531      1.00000
     81       3.5531      1.00000
     82       3.5531      1.00000
     83       3.5531      1.00000
     84       3.5531      1.00000
     85       3.5531      1.00000
     86       3.5531      1.00000
     87       3.5531      1.00000
     88       3.5531      1.00000
     89       3.5531      1.00000
     90       3.5531      1.00000
     91       3.5531      1.00000
     92       3.5531      1.00000
     93       3.5531      1.00000
     94       3.5531      1.00000
     95       3.5531      1.00000
     96       3.5531      1.00000
     97       3.5531      1.00000
     98       3.5531      1.00000
     99       3.5531      1.00000
    100       3.5531      1.00000
    101       3.5531      1.00000
    102       3.5531      1.00000
    103       3.5531      1.00000
    104       3.5531      1.00000
    105       3.5531      1.00000
    106       3.5531      1.00000
    107       3.5531      1.00000
    108       3.5531      1.00000
    109       3.5531      1.00000
    110       3.5531      1.00000
    111       3.5531      1.00000
    112       3.5531      1.00000
    113       3.5531      1.00000
    114       3.5531      1.00000
    115       3.5531      1.00000
    116       3.5531      1.00000
    117       3.5531      1.00000
    118       3.5531      1.00000
    119       3.5531      1.00000
    120       3.5531      1.00000
    121       3.5531      1.00000
    122       3.5531      1.00000
    123       3.5531      1.00000
    124       3.5531      1.00000
    125       3.5531      1.00000
    126       3.5531      1.00000
    127       3.5531      1.00000
    128       3.5531      1.00000
    129       3.5531      1.00000
    130       3.5531      1.00000
    131       3.5531      1.00000
    132       3.5531      1.00000
    133       3.5531      1.00000
    134       3.5531      1.00000
    135       3.5531      1.00000
    136       3.5531      1.00000
    137       3.5531      1.00000
    138       3.5531      1.00000
    139       3.5531      1.00000
    140       3.5531      1.00000
    141       3.5531      1.00000
    142       3.5531      1.00000
    143       3.5531      1.00000
    144       3.5531      1.00000
    145       3.5531      1.00000
    146       3.5531      1.00000
    147       3.5531      1.00000
    148       3.5531      1.00000
    149       3.5531      1.00000
    150       3.5531      1.00000
    151       3.5531      1.00000
    152       3.5531      1.00000
    153       3.5531      1.00000
    154       3.5531      1.00000
    155       3.5531      1.00000
    156      10.8027      1.00000
    157      10.8027      1.00000
    158      10.8027      1.00000
    159      10.8027      1.00000
    160      10.8027      1.00000
    161      10.8027      1.00000
    162      10.8027      1.00000
    163      10.8027      1.00000
    164      10.8027      1.00000
    165      10.8027      1.00000
    166      10.8027      1.00000
    167      10.8027      1.00000
    168      10.8027      1.00000
    169      10.8027      1.00000
    170      10.8027      1.00000
    171      10.8027      1.00000
    172      10.8027      1.00000
    173      10.8027      1.00000
    174      10.8027      1.00000
    175      10.8027      1.00000
    176      10.8027      1.00000
    177      10.8027      1.00000
    178      10.8027      1.00000
    179      10.8027      1.00000
    180      10.8027      1.00000
    181      10.8027      1.00000
    182      10.8027      1.00000
    183      10.8027      1.00000
    184      10.8027      1.00000
    185      10.8027      1.00000
    186      10.8027      1.00000
    187      10.8027      1.00000
    188      10.8027      1.00000
    189      10.8027      1.00000
    190      10.8027      1.00000
    191      10.8027      1.00000
    192      10.8027      1.00000
    193      10.8027      1.00000
    194      10.8027      1.00000
    195      10.8027      1.00000
    196      10.8027      1.00000
    197      10.8027      1.00000
    198      10.8027      1.00000
    199      10.8027      1.00000
    200      10.8027      1.00000
    201      10.8027      1.00000
    202      10.8027      1.00000
    203      10.8027      1.00000
    204      10.8027      1.00000
    205      10.8027      1.00000
    206      10.8027      1.00000
    207      10.8027      1.00000
    208      10.8027      1.00000
    209      10.8027      1.00000
    210      10.8027      1.00000
    211      10.8027      1.00000
    212      10.8027      1.00000
    213      10.8027      1.00000
    214      10.8027      1.00000
    215      10.8027      1.00000
    216      10.8027      1.00000
    217      10.8027      1.00000
    218      10.8027      1.00000
    219      10.8027      1.00000
    220      10.8027      1.00000
    221      10.8027      1.00000
    222      10.8027      1.00000
    223      10.8027      1.00000
    224      10.8027      1.00000
    225      10.8027      1.00000
    226      10.8027      1.00000
    227      10.8027      1.00000
    228      10.8027      1.00000
    229      10.8027      1.00000
    230      10.8027      1.00000
    231      10.8027      1.00000
    232      10.8027      1.00000
    233      10.8027      1.00000
    234      10.8027      1.00000
    235      10.8027      1.00000
    236      10.8027      1.00000
    237      10.8027      1.00000
    238      10.8027      1.00000
    239      10.8027      1.00000
    240      10.8027      1.00000
    241      10.8027      1.00000
    242      10.8027      1.00000
    243      10.8027      1.00000
    244      10.8027      1.00000
    245      10.8027      1.00000
    246      10.8027      1.00000
    247      10.8027      1.00000
    248      10.8027      1.00000
    249      10.8027      1.00000
    250      10.8027      1.00000
    251      10.8027      1.00000
    252      10.8027      1.00000
    253      10.8027      1.00000
    254      10.8027      1.00000
    255      10.8027      1.00000
    256      10.8027      1.00000
    257      10.8027      1.00000
    258      10.8027      1.00000
    259      10.8027      1.00000
    260      10.8027      1.00000
    261      10.8027      1.00000
    262      10.8027      1.00000
    263      10.8027      1.00000
    264      10.8027      1.00000
    265      10.8027      1.00000
    266      10.8027      1.00000
    267      10.8027      1.00000
    268      10.8027      1.00000
    269      10.8027      1.00000
    270      10.8027      1.00000
    271      10.8027      1.00000
    272      10.8027      1.00000
    273      10.8027      1.00000
    274      10.8027      1.00000
    275      10.8027      1.00000
    276      10.8027      1.00000
    277      10.8027      1.00000
    278      10.8027      1.00000
    279      10.8027      1.00000
    280      10.8027      1.00000
    281      10.8027      1.00000
    282      10.8027      1.00000
    283      10.8027      1.00000
    284      10.8027      1.00000
    285      10.8027      1.00000
    286      10.8027      1.00000
    287      10.8027      1.00000
    288      10.8027      1.00000
    289      10.8027      1.00000
    290      10.8027      1.00000
    291      10.8027      1.00000
    292      10.8027      1.00000
    293      10.8027      1.00000
    294      10.8027      1.00000
    295      10.8027      1.00000
    296      10.8027      1.00000
    297      10.8027      1.00000
    298      10.8027      1.00000
    299      10.8027      1.00000
    300      10.8027      1.00000
    301      10.8027      1.00000
    302      10.8027      1.00000
    303      10.8027      1.00000
    304      10.8027      1.00000
    305      10.8027      1.00000
    306      10.8027      1.00000
    307      10.8027      1.00000
    308      10.8027      1.00000
    309      10.8027      1.00000
    310      10.8027      1.00000
    311      10.8027      1.00000
    312      10.8027      1.00000
    313      10.8027      1.00000
    314      10.8027      1.00000
    315      10.8027      1.00000
    316      10.8027      1.00000
    317      10.8027      1.00000
    318      10.8027      1.00000
    319      10.8027      1.00000
    320      10.8027      1.00000
    321      10.8027      1.00000
    322      10.8027      1.00000
    323      10.8027      1.00000
    324      10.8027      1.00000
    325      10.8027      1.00000
    326      10.8027      1.00000
    327      10.8027      1.00000
    328      10.8027      1.00000
    329      10.8027      1.00000
    330      10.8027      1.00000
    331      10.8027      1.00000
    332      10.8027      1.00000
    333      10.8027      1.00000
    334      10.8027      1.00000
    335      10.8027      1.00000
    336      10.8027      1.00000
    337      10.8027      1.00000
    338      10.8027      1.00000
    339      10.8027      1.00000
    340      10.8027      1.00000
    341      10.8027      1.00000
    342      10.8027      1.00000
    343      10.8027      1.00000
    344      10.8027      1.00000
    345      10.8027      1.00000
    346      10.8027      1.00000
    347      10.8027      1.00000
    348      10.8027      1.00000
    349      10.8027      1.00000
    350      10.8027      1.00000
    351      10.8027      1.00000
    352      10.8027      1.00000
    353      10.8027      1.00000
    354      10.8027      1.00000
    355      10.8027      1.00000
    356      10.8027      1.00000
    357      10.8027      1.00000
    358      10.8027      1.00000
    359      10.8027      1.00000
    360      10.8027      1.00000
    361      10.8027      1.00000
    362      10.8027      1.00000
    363      10.8027      1.00000
    364      10.8027      1.00000
    365      10.8027      1.00000
    366      10.8027      1.00000
    367      10.8027      1.00000
    368      10.8027      1.00000
    369      10.8027      1.00000
    370      10.8027      1.00000
    371      10.8027      1.00000
    372      10.8027      1.00000
    373      10.8027      1.00000
    374      10.8027      1.00000
    375      10.8027      1.00000
    376      10.8027      1.00000
    377      10.8027      1.00000
    378      10.8027      1.00000
    379      10.8027      1.00000
    380      10.8027      1.00000
    381      10.8027      1.00000
    382      10.8027      1.00000
    383      10.8027      1.00000
    384      10.8027      1.00000
    385      10.8027      1.00000
    386      10.8027      1.00000
    387      10.8027      1.00000
    388      10.8027      1.00000
    389      10.8027      1.00000
    390      10.8027      1.00000
    391      10.8027      1.00000
    392      10.8027      1.00000
    393      10.8027      1.00000
    394      10.8027      1.00000
    395      10.8027      1.00000
    396      10.8027      1.00000
    397      10.8027      1.00000
    398      10.8027      1.00000
    399      10.8027      1.00000
    400      10.8027      1.00000
    401      10.8027      1.00000
    402      10.8027      1.00000
    403      10.8027      1.00000
    404      10.8027      1.00000
    405      10.8027      1.00000
    406      10.8027      1.00000
    407      10.8027      1.00000
    408      10.8027      1.00000
    409      10.8027      1.00000
    410      10.8027      1.00000
    411      10.8027      1.00000
    412      10.8027      1.00000
    413      10.8027      1.00000
    414      10.8027      1.00000
    415      10.8027      1.00000
    416      10.8027      1.00000
    417      10.8027      1.00000
    418      10.8027      1.00000
    419      10.8027      1.00000
    420      10.8027      1.00000
    421      10.8027      1.00000
    422      10.8027      1.00000
    423      10.8027      1.00000
    424      10.8027      1.00000
    425      10.8027      1.00000
    426      10.8027      1.00000
    427      10.8027      1.00000
    428      10.8027      1.00000
    429      10.8027      1.00000
    430      10.8027      1.00000
    431      10.8027      1.00000
    432      10.8027      1.00000
    433      10.8027      1.00000
    434      10.8027      1.00000
    435      10.8027      1.00000
    436      10.8027      1.00000
    437      10.8027      1.00000
    438      10.8027      1.00000
    439      10.8027      1.00000
    440      10.8027      1.00000
    441      10.8027      1.00000
    442      10.8027      1.00000
    443      10.8027      1.00000
    444      10.8027      1.00000
    445      10.8027      1.00000
    446      10.8027      1.00000
    447      10.8027      1.00000
    448      10.8027      1.00000
    449      10.8027      1.00000
    450      10.8027      1.00000
    451      10.8027      1.00000
    452      10.8027      1.00000
    453      10.8027      1.00000
    454      10.8027      1.00000
    455      10.8027      1.00000
    456      10.8027      1.00000
    457      10.8027      1.00000
    458      10.8027      1.00000
    459      10.8027      1.00000
    460      10.8027      1.00000
    461      10.8027      1.00000
    462      10.8027      1.00000
    463      10.8027      1.00000
    464      10.8027      1.00000
    465      10.8027      1.00000
    466      10.8027      1.00000
    467      10.8027      1.00000
    468      10.8027      1.00000
    469      10.8027      1.00000
    470      10.8027      1.00000
    471      10.8027      1.00000
    472      10.8027      1.00000
    473      10.8027      1.00000
    474      10.8027      1.00000
    475      10.8027      1.00000
    476      10.8027      1.00000
    477      10.8027      1.00000
    478      10.8027      1.00000
    479      10.8027      1.00000
    480      10.8027      1.00000
    481      10.8027      1.00000
    482      10.8027      1.00000
    483      10.8027      1.00000
    484      10.8027      1.00000
    485      10.8027      1.00000
    486      10.8027      1.00000
    487      10.8027      1.00000
    488      10.8027      1.00000
    489      10.8027      1.00000
    490      10.8027      1.00000
    491      10.8027      1.00000
    492      10.8027      1.00000
    493      10.8027      1.00000
    494      10.8027      1.00000
    495      10.8027      1.00000
    496      10.8027      1.00000
    497      10.8027      1.00000
    498      10.8027      1.00000
    499      10.8027      1.00000
    500      10.8027      1.00000
    501      10.8027      1.00000
    502      10.8027      1.00000
    503      10.8027      1.00000
    504      10.8027      1.00000
    505      10.8027      1.00000
    506      10.8027      1.00000
    507      10.8027      1.00000
    508      10.8027      1.00000
    509      10.8027      1.00000
    510      10.8027      1.00000
    511      10.8027      1.00000
    512      10.8027      1.00000
    513      10.8027      1.00000
    514      10.8027      1.00000
    515      10.8027      1.00000
    516      10.8027      1.00000
    517      10.8027      1.00000
    518      10.8027      1.00000
    519      10.8027      1.00000
    520      10.8027      1.00000
    521      10.8027      1.00000
    522      10.8027      1.00000
    523      10.8027      1.00000
    524      10.8027      1.00000
    525      10.8027      1.00000
    526      10.8027      1.00000
    527      10.8027      1.00000
    528      10.8027      1.00000
    529      10.8027      1.00000
    530      10.8027      1.00000
    531      10.8027      1.00000
    532      10.8027      1.00000
    533      10.8027      1.00000
    534      10.8027      1.00000
    535      10.8027      1.00000
    536      10.8027      1.00000
    537      10.8027      1.00000
    538      10.8027      1.00000
    539      10.8027      1.00000
    540      10.8027      1.00000
    541      10.8027      1.00000
    542      10.8027      1.00000
    543      10.8027      1.00000
    544      10.8027      1.00000
    545      10.8027      1.00000
    546      10.8027      1.00000
    547      10.8027      1.00000
    548      10.8027      1.00000
    549      10.8027      1.00000
    550      10.8027      1.00000
    551      10.8027      1.00000
    552      10.8027      1.00000
    553      10.8027      1.00000
    554      10.8027      1.00000
    555      10.8027      1.00000
    556      10.8027      1.00000
    557      10.8027      1.00000
    558      10.8027      1.00000
    559      10.8027      1.00000
    560      10.8027      1.00000
    561      10.8027      1.00000
    562      10.8027      1.00000
    563      10.8027      1.00000
    564      10.8027      1.00000
    565      10.8027      1.00000
    566      10.8027      1.00000
    567      10.8027      1.00000
    568       6.3664      0.70931
    569       6.3948      0.11606
    570       6.4037      0.00002
    571       6.5886      0.00000
    572       6.7614      0.00000
    573       6.7913      0.00000
    574       6.8747      0.00000
    575       6.9020      0.00000
    576       6.9388      0.00000
    577       6.9668      0.00000
    578       7.0460      0.00000
    579       7.1288      0.00000
    580       7.1327      0.00000
    581       7.1470      0.00000
    582       7.1844      0.00000
    583       7.1904      0.00000
    584       7.2038      0.00000
    585       7.2576      0.00000
    586       7.2973      0.00000
    587       7.3019      0.00000
    588       7.3062      0.00000
    589       7.3470      0.00000
    590       7.3828      0.00000
    591       7.3913      0.00000
    592       7.4614      0.00000
    593       7.4843      0.00000
    594       7.4917      0.00000
    595       7.6343      0.00000
    596       7.6737      0.00000
    597       7.7321      0.00000
    598       7.7409      0.00000
    599       7.7856      0.00000
    600       7.7894      0.00000
    601       7.8301      0.00000
    602       7.9007      0.00000
    603       7.9054      0.00000
    604       7.9253      0.00000
    605       7.9260      0.00000
    606       7.9292      0.00000
    607       7.9363      0.00000
    608       7.9724      0.00000
    609       7.9783      0.00000
    610       8.0095      0.00000
    611       8.0187      0.00000
    612       8.0230      0.00000
    613       8.0264      0.00000
    614       8.0297      0.00000
    615       8.0316      0.00000
    616       8.0504      0.00000
    617       8.0542      0.00000
    618       8.0586      0.00000
    619       8.0841      0.00000
    620       8.1070      0.00000
    621       8.1072      0.00000
    622       8.1113      0.00000
    623       8.1131      0.00000
    624       8.1401      0.00000
    625       8.1419      0.00000
    626       8.1446      0.00000
    627       8.1661      0.00000
    628       8.1764      0.00000
    629       8.1835      0.00000
    630       8.1922      0.00000
    631       8.2183      0.00000
    632       8.2407      0.00000
    633       8.2411      0.00000
    634       8.2516      0.00000
    635       8.2723      0.00000
    636       8.3236      0.00000
    637       8.3343      0.00000
    638       8.3347      0.00000
    639       8.3554      0.00000
    640       8.3925      0.00000
    641       8.3933      0.00000
    642       8.3991      0.00000
    643       8.4296      0.00000
    644       8.4433      0.00000
    645       8.4941      0.00000
    646       8.5028      0.00000
    647       8.5264      0.00000
    648       8.5403      0.00000
    649       8.5425      0.00000
    650       8.5520      0.00000
    651       8.5604      0.00000
    652       8.5653      0.00000
    653       8.5672      0.00000
    654       8.5692      0.00000
    655       8.5998      0.00000
    656       8.6456      0.00000
    657       8.6517      0.00000
    658       8.6611      0.00000
    659       8.6676      0.00000
    660       8.6694      0.00000
    661       8.6756      0.00000
    662       8.6883      0.00000
    663       8.7209      0.00000
    664       8.7351      0.00000
    665       8.7445      0.00000
    666       8.7467      0.00000
    667       8.7598      0.00000
    668       8.7685      0.00000
    669       8.7848      0.00000
    670       8.7875      0.00000
    671       8.8044      0.00000
    672       8.8053      0.00000
    673       8.8074      0.00000
    674       8.8539      0.00000
    675       8.8607      0.00000
    676       8.8635      0.00000
    677       8.8639      0.00000
    678       8.8724      0.00000
    679       8.8774      0.00000
    680       8.8970      0.00000
    681       8.9090      0.00000
    682       8.9235      0.00000
    683       8.9330      0.00000
    684       8.9332      0.00000
    685       8.9366      0.00000
    686       8.9478      0.00000
    687       8.9632      0.00000
    688       8.9735      0.00000
    689       8.9817      0.00000
    690       8.9891      0.00000
    691       8.9905      0.00000
    692       8.9947      0.00000
    693       9.0024      0.00000
    694       9.0101      0.00000
    695       9.0192      0.00000
    696       9.0242      0.00000
    697       9.0385      0.00000
    698       9.0806      0.00000
    699       9.0869      0.00000
    700       9.0873      0.00000
    701       9.0920      0.00000
    702       9.1278      0.00000
    703       9.1481      0.00000
    704       9.1507      0.00000
    705       9.1719      0.00000
    706       9.1758      0.00000
    707       9.1799      0.00000
    708       9.1987      0.00000
    709       9.2015      0.00000
    710       9.2060      0.00000
    711       9.2143      0.00000
    712       9.2156      0.00000
    713       9.2337      0.00000
    714       9.2564      0.00000
    715       9.2720      0.00000
    716       9.2791      0.00000
    717       9.3064      0.00000
    718       9.3088      0.00000
    719       9.3109      0.00000
    720       9.3194      0.00000
    721       9.3417      0.00000
    722       9.3473      0.00000
    723       9.3490      0.00000
    724       9.3616      0.00000
    725       9.3672      0.00000
    726       9.3674      0.00000
    727       9.3712      0.00000
    728       9.3731      0.00000
    729       9.3812      0.00000
    730       9.3869      0.00000
    731       9.3880      0.00000
    732       9.3921      0.00000
    733       9.3988      0.00000
    734       9.4147      0.00000
    735       9.4337      0.00000
    736       9.4473      0.00000
    737       9.4648      0.00000
    738       9.4692      0.00000
    739       9.5353      0.00000
    740       9.5520      0.00000
    741       9.5633      0.00000
    742       9.5791      0.00000
    743       9.5816      0.00000
    744       9.5939      0.00000
    745       9.6136      0.00000
    746       9.7674      0.00000
    747       9.7682      0.00000
    748       9.7731      0.00000
    749       9.7763      0.00000
    750       9.8292      0.00000
    751       9.8466      0.00000
    752       9.8490      0.00000
    753       9.8513      0.00000
    754       9.8947      0.00000
    755       9.9202      0.00000
    756       9.9703      0.00000
    757       9.9775      0.00000
    758      10.0690      0.00000
    759      10.1685      0.00000
    760      10.1925      0.00000
    761      10.2408      0.00000
    762      10.2573      0.00000
    763      10.3222      0.00000
    764      10.4987      0.00000
    765      10.5954      0.00000
    766      10.6438      0.00000
    767      11.1199      0.00000
    768      11.4446      0.00000
    769      11.7218      0.00000
    770      11.7239      0.00000
    771      11.8327      0.00000
    772      11.9780      0.00000
    773      12.1472      0.00000
    774      12.2849      0.00000
    775      12.5949      0.00000
    776      13.0972      0.00000
    777      14.0575      0.00000
    778      14.2008      0.00000
    779      14.3419      0.00000
    780      14.5422      0.00000
    781      14.8574      0.00000
    782      15.0241      0.00000
    783      15.0322      0.00000
    784      15.3582      0.00000
    785      15.6706      0.00000
    786      15.6990      0.00000
    787      15.8965      0.00000
    788      16.3845      0.00000
    789      16.6977      0.00000
    790      16.7832      0.00000
    791      16.8030      0.00000
    792      16.9387      0.00000
    793      17.0786      0.00000
    794      17.1533      0.00000
    795      17.3780      0.00000
    796      18.4631      0.00000
    797      19.8587      0.00000
    798      20.2914      0.00000
    799      21.0969      0.00000
    800      23.1310      0.00000

 k-point     2 :       0.5000    0.0000    0.0000
  band No.  band energies     occupation 
      1       5.3995      1.00000
      2       5.3995      1.00000
      3       5.3995      1.00000
      4       5.3995      1.00000
      5       5.3995      1.00000
      6       5.3995      1.00000
      7       5.3995      1.00000
      8       5.3995      1.00000
      9       5.3995      1.00000
     10       5.3995      1.00000
     11       5.3995      1.00000
     12       5.3995      1.00000
     13       5.3995      1.00000
     14       5.3995      1.00000
     15       5.3995      1.00000
     16       5.3995      1.00000
     17       5.3995      1.00000
     18       5.3995      1.00000
     19       5.3995      1.00000
     20       5.3995      1.00000
     21       5.3995      1.00000
     22       5.3995      1.00000
     23       5.3995      1.00000
     24       5.3995      1.00000
     25       5.3995      1.00000
     26       5.3995      1.00000
     27       5.3995      1.00000
     28       5.3995      1.00000
     29       5.3995      1.00000
     30       5.3995      1.00000
     31       5.3995      1.00000
     32       5.3995      1.00000
     33       5.3995      1.00000
     34       5.3995      1.00000
     35       5.3995      1.00000
     36       5.3995      1.00000
     37       5.3995      1.00000
     38       5.3995      1.00000
     39       5.3995      1.00000
     40       5.3995      1.00000
     41       5.3995      1.00000
     42       5.3995      1.00000
     43       5.3995      1.00000
     44       5.3995      1.00000
     45       5.3995      1.00000
     46       5.3995      1.00000
     47       5.3995      1.00000
     48       5.3995      1.00000
     49       5.3995      1.00000
     50       5.3995      1.00000
     51       5.3995      1.00000
     52       5.3995      1.00000
     53       5.3995      1.00000
     54       5.3995      1.00000
     55       5.3995      1.00000
     56       5.3995      1.00000
     57       5.3995      1.00000
     58       5.3995      1.00000
     59       5.3995      1.00000
     60       5.3995      1.00000
     61       5.3995      1.00000
     62       5.3995      1.00000
     63       5.3995      1.00000
     64       5.3995      1.00000
     65       5.3995      1.00000
     66       5.3995      1.00000
     67       5.3995      1.00000
     68       5.3995      1.00000
     69       5.3995      1.00000
     70       5.3995      1.00000
     71       5.3995      1.00000
     72       5.3995      1.00000
     73       5.3995      1.00000
     74       5.3995      1.00000
     75       5.3995      1.00000
     76       5.3995      1.00000
     77       5.3995      1.00000
     78       5.3995      1.00000
     79       5.3995      1.00000
     80       5.3995      1.00000
[...]
 -0.005  -0.000  -0.171  -0.000   0.199  -0.000   0.171  -0.000  -0.000  -0.000  -0.005  -0.000  -0.168  -0.000   0.195  -0.000
 -0.171  -0.000  -0.005  -0.000  -0.097   0.000   0.175  -0.000   0.168   0.000  -0.168  -0.000  -0.005  -0.000  -0.095   0.000
 total augmentation occupancy for first ion, spin component:           1
    NaN     NaN     NaN     NaN     NaN     NaN     NaN     NaN     NaN     NaN     NaN     NaN     NaN     NaN     NaN     NaN
    NaN     NaN     NaN     NaN     NaN     NaN     NaN     NaN     NaN     NaN     NaN     NaN     NaN     NaN     NaN     NaN
    NaN     NaN     NaN     NaN     NaN     NaN     NaN     NaN     NaN     NaN     NaN     NaN     NaN     NaN     NaN     NaN
    NaN     NaN     NaN     NaN     NaN     NaN     NaN     NaN     NaN     NaN     NaN     NaN     NaN     NaN     NaN     NaN
    NaN     NaN     NaN     NaN     NaN     NaN     NaN     NaN     NaN     NaN     NaN     NaN     NaN     NaN     NaN     NaN
    NaN     NaN     NaN     NaN     NaN     NaN     NaN     NaN     NaN     NaN     NaN     NaN     NaN     NaN     NaN     NaN
    NaN     NaN     NaN     NaN     NaN     NaN     NaN     NaN     NaN     NaN     NaN     NaN     NaN     NaN     NaN     NaN
    NaN     NaN     NaN     NaN     NaN     NaN     NaN     NaN     NaN     NaN     NaN     NaN     NaN     NaN     NaN     NaN
    NaN     NaN     NaN     NaN     NaN     NaN     NaN     NaN     NaN     NaN     NaN     NaN     NaN     NaN     NaN     NaN
    NaN     NaN     NaN     NaN     NaN     NaN     NaN     NaN     NaN     NaN     NaN     NaN     NaN     NaN     NaN     NaN
    NaN     NaN     NaN     NaN     NaN     NaN     NaN     NaN     NaN     NaN     NaN     NaN     NaN     NaN     NaN     NaN
    NaN     NaN     NaN     NaN     NaN     NaN     NaN     NaN     NaN     NaN     NaN     NaN     NaN     NaN     NaN     NaN
    NaN     NaN     NaN     NaN     NaN     NaN     NaN     NaN     NaN     NaN     NaN     NaN     NaN     NaN     NaN     NaN
    NaN     NaN     NaN     NaN     NaN     NaN     NaN     NaN     NaN     NaN     NaN     NaN     NaN     NaN     NaN     NaN
    NaN     NaN     NaN     NaN     NaN     NaN     NaN     NaN     NaN     NaN     NaN     NaN     NaN     NaN     NaN     NaN
    NaN     NaN     NaN     NaN     NaN     NaN     NaN     NaN     NaN     NaN     NaN     NaN     NaN     NaN     NaN     NaN
    NaN     NaN     NaN     NaN     NaN     NaN     NaN     NaN     NaN     NaN     NaN     NaN     NaN     NaN     NaN     NaN
    NaN     NaN     NaN     NaN     NaN     NaN     NaN     NaN     NaN     NaN     NaN     NaN     NaN     NaN     NaN     NaN
 total augmentation occupancy for first ion, spin component:           2
    NaN     NaN     NaN     NaN     NaN     NaN     NaN     NaN     NaN     NaN     NaN     NaN     NaN     NaN     NaN     NaN
    NaN     NaN     NaN     NaN     NaN     NaN     NaN     NaN     NaN     NaN     NaN     NaN     NaN     NaN     NaN     NaN
    NaN     NaN     NaN     NaN     NaN     NaN     NaN     NaN     NaN     NaN     NaN     NaN     NaN     NaN     NaN     NaN
    NaN     NaN     NaN     NaN     NaN     NaN     NaN     NaN     NaN     NaN     NaN     NaN     NaN     NaN     NaN     NaN
    NaN     NaN     NaN     NaN     NaN     NaN     NaN     NaN     NaN     NaN     NaN     NaN     NaN     NaN     NaN     NaN
    NaN     NaN     NaN     NaN     NaN     NaN     NaN     NaN     NaN     NaN     NaN     NaN     NaN     NaN     NaN     NaN
    NaN     NaN     NaN     NaN     NaN     NaN     NaN     NaN     NaN     NaN     NaN     NaN     NaN     NaN     NaN     NaN
    NaN     NaN     NaN     NaN     NaN     NaN     NaN     NaN     NaN     NaN     NaN     NaN     NaN     NaN     NaN     NaN
    NaN     NaN     NaN     NaN     NaN     NaN     NaN     NaN     NaN     NaN     NaN     NaN     NaN     NaN     NaN     NaN
    NaN     NaN     NaN     NaN     NaN     NaN     NaN     NaN     NaN     NaN     NaN     NaN     NaN     NaN     NaN     NaN
    NaN     NaN     NaN     NaN     NaN     NaN     NaN     NaN     NaN     NaN     NaN     NaN     NaN     NaN     NaN     NaN
    NaN     NaN     NaN     NaN     NaN     NaN     NaN     NaN     NaN     NaN     NaN     NaN     NaN     NaN     NaN     NaN
    NaN     NaN     NaN     NaN     NaN     NaN     NaN     NaN     NaN     NaN     NaN     NaN     NaN     NaN     NaN     NaN
    NaN     NaN     NaN     NaN     NaN     NaN     NaN     NaN     NaN     NaN     NaN     NaN     NaN     NaN     NaN     NaN
    NaN     NaN     NaN     NaN     NaN     NaN     NaN     NaN     NaN     NaN     NaN     NaN     NaN     NaN     NaN     NaN
    NaN     NaN     NaN     NaN     NaN     NaN     NaN     NaN     NaN     NaN     NaN     NaN     NaN     NaN     NaN     NaN
    NaN     NaN     NaN     NaN     NaN     NaN     NaN     NaN     NaN     NaN     NaN     NaN     NaN     NaN     NaN     NaN
    NaN     NaN     NaN     NaN     NaN     NaN     NaN     NaN     NaN     NaN     NaN     NaN     NaN     NaN     NaN     NaN
 total augmentation occupancy for first ion, spin component:           3
    NaN     NaN     NaN     NaN     NaN     NaN     NaN     NaN     NaN     NaN     NaN     NaN     NaN     NaN     NaN     NaN
    NaN     NaN     NaN     NaN     NaN     NaN     NaN     NaN     NaN     NaN     NaN     NaN     NaN     NaN     NaN     NaN
    NaN     NaN     NaN     NaN     NaN     NaN     NaN     NaN     NaN     NaN     NaN     NaN     NaN     NaN     NaN     NaN
    NaN     NaN     NaN     NaN     NaN     NaN     NaN     NaN     NaN     NaN     NaN     NaN     NaN     NaN     NaN     NaN
    NaN     NaN     NaN     NaN     NaN     NaN     NaN     NaN     NaN     NaN     NaN     NaN     NaN     NaN     NaN     NaN
    NaN     NaN     NaN     NaN     NaN     NaN     NaN     NaN     NaN     NaN     NaN     NaN     NaN     NaN     NaN     NaN
    NaN     NaN     NaN     NaN     NaN     NaN     NaN     NaN     NaN     NaN     NaN     NaN     NaN     NaN     NaN     NaN
    NaN     NaN     NaN     NaN     NaN     NaN     NaN     NaN     NaN     NaN     NaN     NaN     NaN     NaN     NaN     NaN
    NaN     NaN     NaN     NaN     NaN     NaN     NaN     NaN     NaN     NaN     NaN     NaN     NaN     NaN     NaN     NaN
    NaN     NaN     NaN     NaN     NaN     NaN     NaN     NaN     NaN     NaN     NaN     NaN     NaN     NaN     NaN     NaN
    NaN     NaN     NaN     NaN     NaN     NaN     NaN     NaN     NaN     NaN     NaN     NaN     NaN     NaN     NaN     NaN
    NaN     NaN     NaN     NaN     NaN     NaN     NaN     NaN     NaN     NaN     NaN     NaN     NaN     NaN     NaN     NaN
    NaN     NaN     NaN     NaN     NaN     NaN     NaN     NaN     NaN     NaN     NaN     NaN     NaN     NaN     NaN     NaN
    NaN     NaN     NaN     NaN     NaN     NaN     NaN     NaN     NaN     NaN     NaN     NaN     NaN     NaN     NaN     NaN
    NaN     NaN     NaN     NaN     NaN     NaN     NaN     NaN     NaN     NaN     NaN     NaN     NaN     NaN     NaN     NaN
    NaN     NaN     NaN     NaN     NaN     NaN     NaN     NaN     NaN     NaN     NaN     NaN     NaN     NaN     NaN     NaN
    NaN     NaN     NaN     NaN     NaN     NaN     NaN     NaN     NaN     NaN     NaN     NaN     NaN     NaN     NaN     NaN
    NaN     NaN     NaN     NaN     NaN     NaN     NaN     NaN     NaN     NaN     NaN     NaN     NaN     NaN     NaN     NaN
 total augmentation occupancy for first ion, spin component:           4
    NaN     NaN     NaN     NaN     NaN     NaN     NaN     NaN     NaN     NaN     NaN     NaN     NaN     NaN     NaN     NaN
    NaN     NaN     NaN     NaN     NaN     NaN     NaN     NaN     NaN     NaN     NaN     NaN     NaN     NaN     NaN     NaN
    NaN     NaN     NaN     NaN     NaN     NaN     NaN     NaN     NaN     NaN     NaN     NaN     NaN     NaN     NaN     NaN
    NaN     NaN     NaN     NaN     NaN     NaN     NaN     NaN     NaN     NaN     NaN     NaN     NaN     NaN     NaN     NaN
    NaN     NaN     NaN     NaN     NaN     NaN     NaN     NaN     NaN     NaN     NaN     NaN     NaN     NaN     NaN     NaN
    NaN     NaN     NaN     NaN     NaN     NaN     NaN     NaN     NaN     NaN     NaN     NaN     NaN     NaN     NaN     NaN
    NaN     NaN     NaN     NaN     NaN     NaN     NaN     NaN     NaN     NaN     NaN     NaN     NaN     NaN     NaN     NaN
    NaN     NaN     NaN     NaN     NaN     NaN     NaN     NaN     NaN     NaN     NaN     NaN     NaN     NaN     NaN     NaN
    NaN     NaN     NaN     NaN     NaN     NaN     NaN     NaN     NaN     NaN     NaN     NaN     NaN     NaN     NaN     NaN
    NaN     NaN     NaN     NaN     NaN     NaN     NaN     NaN     NaN     NaN     NaN     NaN     NaN     NaN     NaN     NaN
    NaN     NaN     NaN     NaN     NaN     NaN     NaN     NaN     NaN     NaN     NaN     NaN     NaN     NaN     NaN     NaN
    NaN     NaN     NaN     NaN     NaN     NaN     NaN     NaN     NaN     NaN     NaN     NaN     NaN     NaN     NaN     NaN
    NaN     NaN     NaN     NaN     NaN     NaN     NaN     NaN     NaN     NaN     NaN     NaN     NaN     NaN     NaN     NaN
    NaN     NaN     NaN     NaN     NaN     NaN     NaN     NaN     NaN     NaN     NaN     NaN     NaN     NaN     NaN     NaN
    NaN     NaN     NaN     NaN     NaN     NaN     NaN     NaN     NaN     NaN     NaN     NaN     NaN     NaN     NaN     NaN
    NaN     NaN     NaN     NaN     NaN     NaN     NaN     NaN     NaN     NaN     NaN     NaN     NaN     NaN     NaN     NaN
    NaN     NaN     NaN     NaN     NaN     NaN     NaN     NaN     NaN     NaN     NaN     NaN     NaN     NaN     NaN     NaN
    NaN     NaN     NaN     NaN     NaN     NaN     NaN     NaN     NaN     NaN     NaN     NaN     NaN     NaN     NaN     NaN


------------------------ aborting loop because EDIFF is reached ----------------------------------------





 total charge     

# of ion       s       p       d       tot
------------------------------------------
    1          NaN     NaN     NaN     NaN
    2          NaN     NaN     NaN     NaN
    3          NaN     NaN     NaN     NaN
    4          NaN     NaN     NaN     NaN
    5          NaN     NaN     NaN     NaN
    6          NaN     NaN     NaN     NaN
    7          NaN     NaN     NaN     NaN
    8          NaN     NaN     NaN     NaN
    9          NaN     NaN     NaN     NaN
   10          NaN     NaN     NaN     NaN
   11          NaN     NaN     NaN     NaN
   12          NaN     NaN     NaN     NaN
   13          NaN     NaN     NaN     NaN
   14          NaN     NaN     NaN     NaN
   15          NaN     NaN     NaN     NaN
   16          NaN     NaN     NaN     NaN
   17          NaN     NaN     NaN     NaN
   18          NaN     NaN     NaN     NaN
   19          NaN     NaN     NaN     NaN
   20          NaN     NaN     NaN     NaN
   21          NaN     NaN     NaN     NaN
   22          NaN     NaN     NaN     NaN
   23          NaN     NaN     NaN     NaN
   24          NaN     NaN     NaN     NaN
   25          NaN     NaN     NaN     NaN
   26          NaN     NaN     NaN     NaN
   27          NaN     NaN     NaN     NaN
   28          NaN     NaN     NaN     NaN
   29          NaN     NaN     NaN     NaN
   30          NaN     NaN     NaN     NaN
   31          NaN     NaN     NaN     NaN
   32          NaN     NaN     NaN     NaN
   33          NaN     NaN     NaN     NaN
   34          NaN     NaN     NaN     NaN
   35          NaN     NaN     NaN     NaN
   36          NaN     NaN     NaN     NaN
   37          NaN     NaN     NaN     NaN
   38          NaN     NaN     NaN     NaN
   39          NaN     NaN     NaN     NaN
   40          NaN     NaN     NaN     NaN
   41          NaN     NaN     NaN     NaN
   42          NaN     NaN     NaN     NaN
   43          NaN     NaN     NaN     NaN
   44          NaN     NaN     NaN     NaN
   45          NaN     NaN     NaN     NaN
   46          NaN     NaN     NaN     NaN
   47          NaN     NaN     NaN     NaN
   48          NaN     NaN     NaN     NaN
   49          NaN     NaN     NaN     NaN
   50          NaN     NaN     NaN     NaN
   51          NaN     NaN     NaN     NaN
   52          NaN     NaN     NaN     NaN
   53          NaN     NaN     NaN     NaN
   54          NaN     NaN     NaN     NaN
   55          NaN     NaN     NaN     NaN
   56          NaN     NaN     NaN     NaN
   57          NaN     NaN     NaN     NaN
   58          NaN     NaN     NaN     NaN
   59          NaN     NaN     NaN     NaN
   60          NaN     NaN     NaN     NaN
   61          NaN     NaN     NaN     NaN
   62          NaN     NaN     NaN     NaN
   63          NaN     NaN     NaN     NaN
   64          NaN     NaN     NaN     NaN
   65          NaN     NaN     NaN     NaN
--------------------------------------------------
tot            NaN     NaN     NaN     NaN



 magnetization (x)

# of ion       s       p       d       tot
------------------------------------------
    1          NaN     NaN     NaN     NaN
    2          NaN     NaN     NaN     NaN
    3          NaN     NaN     NaN     NaN
    4          NaN     NaN     NaN     NaN
    5          NaN     NaN     NaN     NaN
    6          NaN     NaN     NaN     NaN
    7          NaN     NaN     NaN     NaN
    8          NaN     NaN     NaN     NaN
    9          NaN     NaN     NaN     NaN
   10          NaN     NaN     NaN     NaN
   11          NaN     NaN     NaN     NaN
   12          NaN     NaN     NaN     NaN
   13          NaN     NaN     NaN     NaN
   14          NaN     NaN     NaN     NaN
   15          NaN     NaN     NaN     NaN
   16          NaN     NaN     NaN     NaN
   17          NaN     NaN     NaN     NaN
   18          NaN     NaN     NaN     NaN
   19          NaN     NaN     NaN     NaN
   20          NaN     NaN     NaN     NaN
   21          NaN     NaN     NaN     NaN
   22          NaN     NaN     NaN     NaN
   23          NaN     NaN     NaN     NaN
   24          NaN     NaN     NaN     NaN
   25          NaN     NaN     NaN     NaN
   26          NaN     NaN     NaN     NaN
   27          NaN     NaN     NaN     NaN
   28          NaN     NaN     NaN     NaN
   29          NaN     NaN     NaN     NaN
   30          NaN     NaN     NaN     NaN
   31          NaN     NaN     NaN     NaN
   32          NaN     NaN     NaN     NaN
   33          NaN     NaN     NaN     NaN
   34          NaN     NaN     NaN     NaN
   35          NaN     NaN     NaN     NaN
   36          NaN     NaN     NaN     NaN
   37          NaN     NaN     NaN     NaN
   38          NaN     NaN     NaN     NaN
   39          NaN     NaN     NaN     NaN
   40          NaN     NaN     NaN     NaN
   41          NaN     NaN     NaN     NaN
   42          NaN     NaN     NaN     NaN
   43          NaN     NaN     NaN     NaN
   44          NaN     NaN     NaN     NaN
   45          NaN     NaN     NaN     NaN
   46          NaN     NaN     NaN     NaN
   47          NaN     NaN     NaN     NaN
   48          NaN     NaN     NaN     NaN
   49          NaN     NaN     NaN     NaN
   50          NaN     NaN     NaN     NaN
   51          NaN     NaN     NaN     NaN
   52          NaN     NaN     NaN     NaN
   53          NaN     NaN     NaN     NaN
   54          NaN     NaN     NaN     NaN
   55          NaN     NaN     NaN     NaN
   56          NaN     NaN     NaN     NaN
   57          NaN     NaN     NaN     NaN
   58          NaN     NaN     NaN     NaN
   59          NaN     NaN     NaN     NaN
   60          NaN     NaN     NaN     NaN
   61          NaN     NaN     NaN     NaN
   62          NaN     NaN     NaN     NaN
   63          NaN     NaN     NaN     NaN
   64          NaN     NaN     NaN     NaN
   65          NaN     NaN     NaN     NaN
--------------------------------------------------
tot            NaN     NaN     NaN     NaN



 magnetization (y)

# of ion       s       p       d       tot
------------------------------------------
    1          NaN     NaN     NaN     NaN
    2          NaN     NaN     NaN     NaN
    3          NaN     NaN     NaN     NaN
    4          NaN     NaN     NaN     NaN
    5          NaN     NaN     NaN     NaN
    6          NaN     NaN     NaN     NaN
    7          NaN     NaN     NaN     NaN
    8          NaN     NaN     NaN     NaN
    9          NaN     NaN     NaN     NaN
   10          NaN     NaN     NaN     NaN
   11          NaN     NaN     NaN     NaN
   12          NaN     NaN     NaN     NaN
   13          NaN     NaN     NaN     NaN
   14          NaN     NaN     NaN     NaN
   15          NaN     NaN     NaN     NaN
   16          NaN     NaN     NaN     NaN
   17          NaN     NaN     NaN     NaN
   18          NaN     NaN     NaN     NaN
   19          NaN     NaN     NaN     NaN
   20          NaN     NaN     NaN     NaN
   21          NaN     NaN     NaN     NaN
   22          NaN     NaN     NaN     NaN
   23          NaN     NaN     NaN     NaN
   24          NaN     NaN     NaN     NaN
   25          NaN     NaN     NaN     NaN
   26          NaN     NaN     NaN     NaN
   27          NaN     NaN     NaN     NaN
   28          NaN     NaN     NaN     NaN
   29          NaN     NaN     NaN     NaN
   30          NaN     NaN     NaN     NaN
   31          NaN     NaN     NaN     NaN
   32          NaN     NaN     NaN     NaN
   33          NaN     NaN     NaN     NaN
   34          NaN     NaN     NaN     NaN
   35          NaN     NaN     NaN     NaN
   36          NaN     NaN     NaN     NaN
   37          NaN     NaN     NaN     NaN
   38          NaN     NaN     NaN     NaN
   39          NaN     NaN     NaN     NaN
   40          NaN     NaN     NaN     NaN
   41          NaN     NaN     NaN     NaN
   42          NaN     NaN     NaN     NaN
   43          NaN     NaN     NaN     NaN
   44          NaN     NaN     NaN     NaN
   45          NaN     NaN     NaN     NaN
   46          NaN     NaN     NaN     NaN
   47          NaN     NaN     NaN     NaN
   48          NaN     NaN     NaN     NaN
   49          NaN     NaN     NaN     NaN
   50          NaN     NaN     NaN     NaN
   51          NaN     NaN     NaN     NaN
   52          NaN     NaN     NaN     NaN
   53          NaN     NaN     NaN     NaN
   54          NaN     NaN     NaN     NaN
   55          NaN     NaN     NaN     NaN
   56          NaN     NaN     NaN     NaN
   57          NaN     NaN     NaN     NaN
   58          NaN     NaN     NaN     NaN
   59          NaN     NaN     NaN     NaN
   60          NaN     NaN     NaN     NaN
   61          NaN     NaN     NaN     NaN
   62          NaN     NaN     NaN     NaN
   63          NaN     NaN     NaN     NaN
   64          NaN     NaN     NaN     NaN
   65          NaN     NaN     NaN     NaN
--------------------------------------------------
tot            NaN     NaN     NaN     NaN



 magnetization (z)

# of ion       s       p       d       tot
------------------------------------------
    1          NaN     NaN     NaN     NaN
    2          NaN     NaN     NaN     NaN
    3          NaN     NaN     NaN     NaN
    4          NaN     NaN     NaN     NaN
    5          NaN     NaN     NaN     NaN
    6          NaN     NaN     NaN     NaN
    7          NaN     NaN     NaN     NaN
    8          NaN     NaN     NaN     NaN
    9          NaN     NaN     NaN     NaN
   10          NaN     NaN     NaN     NaN
   11          NaN     NaN     NaN     NaN
   12          NaN     NaN     NaN     NaN
   13          NaN     NaN     NaN     NaN
   14          NaN     NaN     NaN     NaN
   15          NaN     NaN     NaN     NaN
   16          NaN     NaN     NaN     NaN
   17          NaN     NaN     NaN     NaN
   18          NaN     NaN     NaN     NaN
   19          NaN     NaN     NaN     NaN
   20          NaN     NaN     NaN     NaN
   21          NaN     NaN     NaN     NaN
   22          NaN     NaN     NaN     NaN
