 vasp.5.4.4.18Apr17-6-g9f103f2a35 (build Apr  4 2022 10:17:17) complex           
 executed on        HPECrayEX-GNU date 2022.04.29  13:16:31
 running on 4096 total cores
 distrk:  each k-point on 2048 cores,    2 groups
 distr:  one band on NCORES_PER_BAND=  32 cores,   64 groups


--------------------------------------------------------------------------------------------------------


 INCAR:
 POTCAR:    PAW_PBE Cd 06Sep2000                  
 POTCAR:    PAW_PBE Te 08Apr2002                  

 ----------------------------------------------------------------------------- 
|                                                                             |
|           W    W    AA    RRRRR   N    N  II  N    N   GGGG   !!!           |
|           W    W   A  A   R    R  NN   N  II  NN   N  G    G  !!!           |
|           W    W  A    A  R    R  N N  N  II  N N  N  G       !!!           |
|           W WW W  AAAAAA  RRRRR   N  N N  II  N  N N  G  GGG   !            |
|           WW  WW  A    A  R   R   N   NN  II  N   NN  G    G                |
|           W    W  A    A  R    R  N    N  II  N    N   GGGG   !!!           |
|                                                                             |
|      You have enabled k-point parallelism (KPAR>1).                         |
|      This developmental code was originally  written by Paul Kent at ORNL,  |
|      and carefully double checked in Vienna.                                |
|      GW as well as linear response parallelism added by Martijn Marsman     |
|      and Georg Kresse.                                                      |
|      Carefully verify results versus KPAR=1.                                |
|      Report problems to Paul Kent and Vienna.                               |
|                                                                             |
 ----------------------------------------------------------------------------- 

 POTCAR:    PAW_PBE Cd 06Sep2000                  
   VRHFIN =Cd : s2 d10                                                          
   LEXCH  = PE                                                                  
   EATOM  =  1293.1815 eV,   95.0462 Ry                                         
                                                                                
   TITEL  = PAW_PBE Cd 06Sep2000                                                
   LULTRA =        F    use ultrasoft PP ?                                      
   IUNSCR =        1    unscreen: 0-lin 1-nonlin 2-no                           
   RPACOR =    2.000    partial core radius                                     
   POMASS =  112.411; ZVAL   =   12.000    mass and valenz                      
   RCORE  =    2.300    outmost cutoff radius                                   
   RWIGS  =    2.980; RWIGS  =    1.577    wigner-seitz radius (au A)           
   ENMAX  =  274.336; ENMIN  =  205.752 eV                                      
   RCLOC  =    2.054    cutoff for local pot                                    
   LCOR   =        T    correct aug charges                                     
   LPAW   =        T    paw PP                                                  
   EAUG   =  456.106                                                            
   DEXC   =    0.000                                                            
   RMAX   =    2.358    core radius for proj-oper                               
   RAUG   =    1.300    factor for augmentation sphere                          
   RDEP   =    2.450    radius for radial grids                                 
   RDEPT  =    1.955    core radius for aug-charge                              
                                                                                
   Atomic configuration                                                         
   12 entries                                                                   
     n  l   j            E        occ.                                          
     1  0  0.50    -26519.7817   2.0000                                         
     2  0  0.50     -3936.9612   2.0000                                         
     2  1  1.50     -3532.2230   6.0000                                         
     3  0  0.50      -733.7908   2.0000                                         
     3  1  1.50      -601.0792   6.0000                                         
     3  2  2.50      -393.5307  10.0000                                         
     4  0  0.50      -105.8977   2.0000                                         
     4  1  1.50       -66.9488   6.0000                                         
     4  2  2.50       -11.7331  10.0000                                         
     5  0  0.50        -5.6592   2.0000                                         
     5  1  0.50        -1.3606   0.0000                                         
     4  3  2.50        -1.3606   0.0000                                         
   Description                                                                  
     l       E           TYP  RCUT    TYP  RCUT                                 
     2    -11.7331479     23  2.300                                             
     2    -13.0937305     23  2.300                                             
     0     -5.6591502     23  2.300                                             
     0     -1.5561433     23  2.300                                             
     1     -2.7211652     23  2.300                                             
     1      8.3548275     23  2.300                                             
  local pseudopotential read in
  partial core-charges read in
  partial kinetic energy density read in
  atomic valenz-charges read in
  non local Contribution for L=           2  read in
    real space projection operators read in
  non local Contribution for L=           2  read in
    real space projection operators read in
  non local Contribution for L=           0  read in
    real space projection operators read in
  non local Contribution for L=           0  read in
    real space projection operators read in
  non local Contribution for L=           1  read in
    real space projection operators read in
  non local Contribution for L=           1  read in
    real space projection operators read in
    PAW grid and wavefunctions read in

   number of l-projection  operators is LMAX  =           6
   number of lm-projection operators is LMMAX =          18

 POTCAR:    PAW_PBE Te 08Apr2002                  
   VRHFIN =Te: s2p4                                                             
   LEXCH  = PE                                                                  
   EATOM  =   223.2721 eV,   16.4100 Ry                                         
                                                                                
   TITEL  = PAW_PBE Te 08Apr2002                                                
   LULTRA =        F    use ultrasoft PP ?                                      
   IUNSCR =        1    unscreen: 0-lin 1-nonlin 2-no                           
   RPACOR =    2.200    partial core radius                                     
   POMASS =  127.600; ZVAL   =    6.000    mass and valenz                      
   RCORE  =    2.300    outmost cutoff radius                                   
   RWIGS  =    2.900; RWIGS  =    1.535    wigner-seitz radius (au A)           
   ENMAX  =  174.982; ENMIN  =  131.236 eV                                      
   ICORE  =        3    local potential                                         
   LCOR   =        T    correct aug charges                                     
   LPAW   =        T    paw PP                                                  
   EAUG   =  368.792                                                            
   DEXC   =    0.000                                                            
   RMAX   =    2.345    core radius for proj-oper                               
   RAUG   =    1.300    factor for augmentation sphere                          
   RDEP   =    2.397    radius for radial grids                                 
   RDEPT  =    2.174    core radius for aug-charge                              
                                                                                
   Atomic configuration                                                         
   13 entries                                                                   
     n  l   j            E        occ.                                          
     1  0  0.50    -31621.2075   2.0000                                         
     2  0  0.50     -4848.7941   2.0000                                         
     2  1  1.50     -4352.1960   6.0000                                         
     3  0  0.50      -964.9612   2.0000                                         
     3  1  1.50      -803.6179   6.0000                                         
     3  2  2.50      -559.8710  10.0000                                         
     4  0  0.50      -164.3522   2.0000                                         
     4  1  1.50      -114.3756   6.0000                                         
     4  2  2.50       -41.6483  10.0000                                         
     5  0  0.50       -15.1072   2.0000                                         
     5  1  0.50        -5.9526   4.0000                                         
     5  2  1.50        -5.4423   0.0000                                         
     4  3  2.50        -5.4423   0.0000                                         
   Description                                                                  
     l       E           TYP  RCUT    TYP  RCUT                                 
     0    -15.1072389     23  2.300                                             
     0    -16.4678215     23  2.300                                             
     1     -5.9526306     23  2.300                                             
     1     -2.4873968     23  2.300                                             
     2     -5.4423304     23  2.300                                             
     3     -1.3605826     23  2.300                                             
  local pseudopotential read in
  partial core-charges read in
  partial kinetic energy density read in
  atomic valenz-charges read in
  non local Contribution for L=           0  read in
    real space projection operators read in
  non local Contribution for L=           0  read in
    real space projection operators read in
  non local Contribution for L=           1  read in
    real space projection operators read in
  non local Contribution for L=           1  read in
    real space projection operators read in
  non local Contribution for L=           2  read in
    real space projection operators read in
    PAW grid and wavefunctions read in

   number of l-projection  operators is LMAX  =           5
   number of lm-projection operators is LMMAX =          13


 ----------------------------------------------------------------------------- 
|                                                                             |
|  ADVICE TO THIS USER RUNNING 'VASP/VAMP'   (HEAR YOUR MASTER'S VOICE ...):  |
|                                                                             |
|      You have a (more or less) 'large supercell' and for larger cells       |
|      it might be more efficient to use real space projection opertators     |
|      So try LREAL= Auto  in the INCAR   file.                               |
|      Mind:          For very  accurate calculation you might also keep the  |
|      reciprocal projection scheme          (i.e. LREAL=.FALSE.)             |
|                                                                             |
 ----------------------------------------------------------------------------- 

  PAW_PBE Cd 06Sep2000                  :
 energy of atom  1       EATOM=-1293.1815
 kinetic energy error for atom=    0.0084 (will be added to EATOM!!)
  PAW_PBE Te 08Apr2002                  :
 energy of atom  2       EATOM= -223.2721
 kinetic energy error for atom=    0.0008 (will be added to EATOM!!)


 POSCAR: Cd33 Te32                               
  positions in direct lattice
  No initial velocities read in
 exchange correlation table for  LEXCH =        8
   RHO(1)=    0.500       N(1)  =     2000
   RHO(2)=  100.500       N(2)  =     4000



--------------------------------------------------------------------------------------------------------


 ion  position               nearest neighbor table
   1  0.004  0.996  0.004-  44 2.79  35 2.93  54 2.93  65 2.93  33 2.94
   2  0.001  0.999  0.497-  55 2.82  34 2.82  64 2.82  45 2.84
   3  0.001  0.503  0.001-  63 2.82  56 2.82  37 2.82  42 2.84
   4  1.000  0.501  0.499-  57 2.82  62 2.82  36 2.82  43 2.84
   5  0.497  0.999  0.001-  39 2.82  50 2.82  61 2.82  48 2.84
   6  0.499  0.000  0.499-  38 2.82  51 2.82  60 2.82  49 2.84
   7  0.499  0.501  1.000-  41 2.82  59 2.82  52 2.82  46 2.84
   8  0.501  0.499  0.501-  47 2.82  40 2.83  53 2.83  58 2.83
   9  0.001  0.251  0.253-  54 2.82  34 2.82  62 2.82  42 2.84
  10  0.004  0.254  0.746-  43 2.79  35 2.93  55 2.93  63 2.93  33 2.94
  11  1.000  0.749  0.251-  56 2.82  64 2.82  36 2.82  44 2.84
  12  0.001  0.747  0.749-  65 2.82  57 2.82  37 2.82  45 2.84
  13  0.499  0.250  0.251-  38 2.82  50 2.82  58 2.82  46 2.84
  14  0.497  0.251  0.749-  39 2.82  51 2.82  59 2.82  47 2.84
  15  0.501  0.751  0.249-  48 2.82  40 2.83  52 2.83  60 2.83
  16  0.499  0.749  0.750-  41 2.82  61 2.82  53 2.82  49 2.84
  17  0.251  0.000  0.251-  34 2.82  50 2.82  60 2.82  44 2.84
  18  0.253  0.999  0.749-  35 2.82  51 2.82  61 2.82  45 2.84
  19  0.249  0.499  0.249-  42 2.82  36 2.83  52 2.83  58 2.83
  20  0.251  0.501  0.750-  37 2.82  59 2.82  53 2.82  43 2.84
  21  0.749  0.999  0.253-  54 2.82  38 2.82  64 2.82  48 2.84
  22  0.746  0.996  0.746-  49 2.79  39 2.93  55 2.93  65 2.93  33 2.94
  23  0.750  0.501  0.251-  56 2.82  62 2.82  40 2.82  46 2.84
  24  0.749  0.503  0.749-  63 2.82  57 2.82  41 2.82  47 2.84
  25  0.253  0.251  0.001-  35 2.82  50 2.82  59 2.82  42 2.84
  26  0.251  0.250  0.499-  34 2.82  51 2.82  58 2.82  43 2.84
  27  0.251  0.749  1.000-  37 2.82  61 2.82  52 2.82  44 2.84
  28  0.249  0.751  0.501-  45 2.82  36 2.83  53 2.83  60 2.83
  29  0.746  0.254  0.004-  46 2.79  39 2.93  54 2.93  63 2.93  33 2.94
  30  0.749  0.251  0.497-  55 2.82  38 2.82  62 2.82  47 2.84
  31  0.749  0.747  0.001-  65 2.82  56 2.82  41 2.82  48 2.84
  32  0.750  0.749  0.499-  57 2.82  64 2.82  40 2.82  49 2.84
  33  0.875  0.125  0.875-   1 2.94  10 2.94  22 2.94  29 2.94  35 3.37  39 3.37  54 3.37  55 3.37
                            63 3.37  65 3.37
  34  0.127  0.125  0.375-  17 2.82  26 2.82   2 2.82   9 2.82
  35  0.133  0.125  0.875-  18 2.82  25 2.82  10 2.93   1 2.93  33 3.37
  36  0.126  0.625  0.375-   4 2.82  11 2.82  19 2.83  28 2.83
  37  0.127  0.625  0.875-  20 2.82  27 2.82   3 2.82  12 2.82
  38  0.623  0.125  0.375-  13 2.82   6 2.82  21 2.82  30 2.82
  39  0.617  0.125  0.875-  14 2.82   5 2.82  22 2.93  29 2.93  33 3.37
  40  0.624  0.625  0.375-  23 2.82  32 2.82   8 2.83  15 2.83
  41  0.623  0.625  0.875-   7 2.82  16 2.82  31 2.82  24 2.82
  42  0.125  0.375  0.125-  19 2.82   9 2.84  25 2.84   3 2.84
  43  0.127  0.377  0.623-  10 2.79   4 2.84  26 2.84  20 2.84
  44  0.127  0.873  0.127-   1 2.79  11 2.84  17 2.84  27 2.84
  45  0.125  0.875  0.625-  28 2.82  18 2.84   2 2.84  12 2.84
  46  0.623  0.377  0.127-  29 2.79  13 2.84  23 2.84   7 2.84
  47  0.625  0.375  0.625-   8 2.82  14 2.84  24 2.84  30 2.84
  48  0.625  0.875  0.125-  15 2.82  21 2.84   5 2.84  31 2.84
  49  0.623  0.873  0.623-  22 2.79  32 2.84   6 2.84  16 2.84
  50  0.375  0.125  0.127-  17 2.82  13 2.82   5 2.82  25 2.82
  51  0.375  0.125  0.623-   6 2.82  26 2.82  18 2.82  14 2.82
  52  0.375  0.625  0.126-   7 2.82  27 2.82  19 2.83  15 2.83
  53  0.375  0.625  0.624-  16 2.82  20 2.82   8 2.83  28 2.83
  54  0.875  0.125  0.133-   9 2.82  21 2.82   1 2.93  29 2.93  33 3.37
  55  0.875  0.125  0.617-  30 2.82   2 2.82  22 2.93  10 2.93  33 3.37
  56  0.875  0.625  0.127-  11 2.82  23 2.82   3 2.82  31 2.82
  57  0.875  0.625  0.623-   4 2.82  32 2.82  12 2.82  24 2.82
  58  0.375  0.376  0.375-  26 2.82  13 2.82  19 2.83   8 2.83
  59  0.375  0.377  0.875-   7 2.82  20 2.82  14 2.82  25 2.82
  60  0.375  0.874  0.375-   6 2.82  17 2.82  15 2.83  28 2.83
  61  0.375  0.873  0.875-  16 2.82  27 2.82   5 2.82  18 2.82
  62  0.875  0.377  0.375-   4 2.82  23 2.82   9 2.82  30 2.82
  63  0.875  0.383  0.875-  24 2.82   3 2.82  10 2.93  29 2.93  33 3.37
  64  0.875  0.873  0.375-  11 2.82  32 2.82   2 2.82  21 2.82
  65  0.875  0.867  0.875-  12 2.82  31 2.82   1 2.93  22 2.93  33 3.37


IMPORTANT INFORMATION: All symmetrisations will be switched off!
NOSYMM: (Re-)initialisation of all symmetry stuff for point group C_1.



 KPOINTS: Automatically generated mesh            
  k-points in reciprocal lattice
Space group operators:
 irot       det(A)        alpha          n_x          n_y          n_z        tau_x        tau_y        tau_z
    1     1.000000     0.000000     1.000000     0.000000     0.000000     0.000000     0.000000     0.000000

 ----------------------------------------------------------------------------- 
|                                                                             |
|           W    W    AA    RRRRR   N    N  II  N    N   GGGG   !!!           |
|           W    W   A  A   R    R  NN   N  II  NN   N  G    G  !!!           |
|           W    W  A    A  R    R  N N  N  II  N N  N  G       !!!           |
|           W WW W  AAAAAA  RRRRR   N  N N  II  N  N N  G  GGG   !            |
|           WW  WW  A    A  R   R   N   NN  II  N   NN  G    G                |
|           W    W  A    A  R    R  N    N  II  N    N   GGGG   !!!           |
|                                                                             |
|      Your generating k-point grid is not commensurate to the symmetry       |
|      of the lattice.  This can cause   slow convergence with respect        |
|      to k-points for HF type calculations                                   |
|      suggested SOLUTIONS:                                                   |
|       ) if not already the case, use automatic k-point generation           |
|       ) shift your grid to Gamma (G) (e.g. required for hex or fcc lattice) |
|                                                                             |
 ----------------------------------------------------------------------------- 

 
 Subroutine IBZKPT_HF returns following result:
 ==============================================
 
 Found      8 k-points in 1st BZ
 the following      8 k-points will be used (e.g. in the exchange kernel)
 Following reciprocal coordinates:   # in IRBZ
  0.000000  0.000000  0.000000    0.12500000   1 t-inv F
  0.500000  0.000000  0.000000    0.12500000   2 t-inv F
  0.000000  0.500000  0.000000    0.12500000   3 t-inv F
  0.500000  0.500000  0.000000    0.12500000   4 t-inv F
  0.000000  0.000000  0.500000    0.12500000   5 t-inv F
  0.500000  0.000000  0.500000    0.12500000   6 t-inv F
  0.000000  0.500000  0.500000    0.12500000   7 t-inv F
  0.500000  0.500000  0.500000    0.12500000   8 t-inv F


--------------------------------------------------------------------------------------------------------




 Dimension of arrays:
   k-points           NKPTS =      8   k-points in BZ     NKDIM =      8   number of bands    NBANDS=    832
   number of dos      NEDOS =   2000   number of ions     NIONS =     65
   non local maximal  LDIM  =      6   non local SUM 2l+1 LMDIM =     18
   total plane-waves  NPLWV = 884736
   max r-space proj   IRMAX =      1   max aug-charges    IRDMAX= 183854
   dimension x,y,z NGX =    96 NGY =   96 NGZ =   96
   dimension x,y,z NGXF=   192 NGYF=  192 NGZF=  192
   support grid    NGXF=   384 NGYF=  384 NGZF=  384
   ions per type =              33  32
   NGX,Y,Z   is equivalent  to a cutoff of  12.20, 12.20, 12.20 a.u.
   NGXF,Y,Z  is equivalent  to a cutoff of  24.39, 24.39, 24.39 a.u.

 SYSTEM =  unknown system                          
 POSCAR =  Cd33 Te32                               

 Startparameter for this run:
   NWRITE =      2    write-flag & timer
   PREC   = accura    normal or accurate (medium, high low for compatibility)
   ISTART =      0    job   : 0-new  1-cont  2-samecut
   ICHARG =      1    charge: 1-file 2-atom 10-const
   ISPIN  =      1    spin polarized calculation?
   LNONCOLLINEAR =      T non collinear calculations
   LSORBIT =      T    spin-orbit coupling
   INIWAV =      1    electr: 0-lowe 1-rand  2-diag
   LASPH  =      T    aspherical Exc in radial PAW
   METAGGA=      F    non-selfconsistent MetaGGA calc.

 Electronic Relaxation 1
   ENCUT  =  450.0 eV  33.07 Ry    5.75 a.u.  22.64 22.64 22.64*2*pi/ulx,y,z
   ENINI  =  450.0     initial cutoff
   ENAUG  =  456.1 eV  augmentation charge cutoff
   NELM   =      6;   NELMIN=  2; NELMDL= -5     # of ELM steps 
   EDIFF  = 0.1E-05   stopping-criterion for ELM
   LREAL  =      F    real-space projection
   NLSPLINE    = F    spline interpolate recip. space projectors
   LCOMPAT=      F    compatible to vasp.4.4
   GGA_COMPAT  = T    GGA compatible to vasp.4.4-vasp.4.6
   LMAXPAW     = -100 max onsite density
   LMAXMIX     =    2 max onsite mixed and CHGCAR
   VOSKOWN=      0    Vosko Wilk Nusair interpolation
   ROPT   =    0.00000   0.00000
 Ionic relaxation
   EDIFFG = -.1E-01   stopping-criterion for IOM
   NSW    =      0    number of steps for IOM
   NBLOCK =      1;   KBLOCK =      1    inner block; outer block 
   IBRION =     -1    ionic relax: 0-MD 1-quasi-New 2-CG
   NFREE  =      0    steps in history (QN), initial steepest desc. (CG)
   ISIF   =      2    stress and relaxation
   IWAVPR =     10    prediction:  0-non 1-charg 2-wave 3-comb
   ISYM   =      0    0-nonsym 1-usesym 2-fastsym
   LCORR  =      T    Harris-Foulkes like correction to forces

   POTIM  = 0.5000    time-step for ionic-motion
   TEIN   =    0.0    initial temperature
   TEBEG  =    0.0;   TEEND  =   0.0 temperature during run
   SMASS  =  -3.00    Nose mass-parameter (am)
   estimated Nose-frequenzy (Omega)   =  0.10E-29 period in steps =****** mass=  -0.391E-26a.u.
   SCALEE = 1.0000    scale energy and forces
   NPACO  =    256;   APACO  = 16.0  distance and # of slots for P.C.
   PSTRESS=    0.0 pullay stress

  Mass of Ions in am
   POMASS = 112.41127.60
  Ionic Valenz
   ZVAL   =  12.00  6.00
  Atomic Wigner-Seitz radii
   RWIGS  =  -1.00 -1.00
  virtual crystal weights 
   VCA    =   1.00  1.00
   NELECT =     588.0000    total number of electrons
   NUPDOWN=      -1.0000    fix difference up-down

 DOS related values:
   EMIN   =  10.00;   EMAX   =-10.00  energy-range for DOS
   EFERMI =   0.00
   ISMEAR =     0;   SIGMA  =   0.05  broadening in eV -4-tet -1-fermi 0-gaus

 Electronic relaxation 2 (details)
   IALGO  =     58    algorithm
   LDIAG  =      T    sub-space diagonalisation (order eigenvalues)
   LSUBROT=      F    optimize rotation matrix (better conditioning)
   TURBO    =      0    0=normal 1=particle mesh
   IRESTART =      0    0=no restart 2=restart with 2 vectors
   NREBOOT  =      0    no. of reboots
   NMIN     =      0    reboot dimension
   EREF     =   0.00    reference energy to select bands
   IMIX   =      4    mixing-type and parameters
     AMIX     =   0.40;   BMIX     =  1.00
     AMIX_MAG =   1.60;   BMIX_MAG =  1.00
     AMIN     =   0.10
     WC   =   100.;   INIMIX=   1;  MIXPRE=   1;  MAXMIX= -45

 Intra band minimization:
   WEIMIN = 0.0000     energy-eigenvalue tresh-hold
   EBREAK =  0.30E-09  absolut break condition
   DEPER  =   0.30     relativ break condition  

   TIME   =   0.40     timestep for ELM

  volume/ion in A,a.u.               =      34.48       232.69
  Fermi-wavevector in a.u.,A,eV,Ry     =   1.048017  1.980464 14.943809  1.098339
  Thomas-Fermi vector in A             =   2.182921

 Write flags
   LWAVE        =      T    write WAVECAR
   LDOWNSAMPLE  =      F    k-point downsampling of WAVECAR
   LCHARG       =      T    write CHGCAR
   LVTOT        =      F    write LOCPOT, total local potential
   LVHAR        =      T    write LOCPOT, Hartree potential only
   LELF         =      F    write electronic localiz. function (ELF)
   LORBIT       =     11    0 simple, 1 ext, 2 COOP (PROOUT), +10 PAW based schemes


 Dipole corrections
   LMONO  =      F    monopole corrections only (constant potential shift)
   LDIPOL =      F    correct potential (dipole corrections)
   IDIPOL =      0    1-x, 2-y, 3-z, 4-all directions 
   EPSILON=  1.0000000 bulk dielectric constant

 Exchange correlation treatment:
   GGA     =    --    GGA type
   LEXCH   =     8    internal setting for exchange type
   VOSKOWN=      0    Vosko Wilk Nusair interpolation
   EXXOEP  =     0    0=HF, 1=EXX-LHF (local Hartree Fock) 2=EXX OEP
   LHFCALC =     T    Hartree Fock is set to
   LSYMGRAD=     F    symmetrize gradient (conserves proper symmetry)
   PRECFOCK=fast      Normal, Fast or Accurate (Low or Medium for compatibility)
   LRHFCALC=     F    long range Hartree Fock
   LRSCOR  =     F    long range correlation only (use DFT for short range part)
   LTHOMAS =     F    Thomas Fermi screening in HF
   LMODELHF=     F    short range full HF, long range fraction AEXX
   ENCUT4O =  -1.0   cutoff for four orbital integrals eV
   LMAXFOCK=     4    L truncation for augmentation on plane wave grid
   LMAXFOCKAE=  -1    L truncation for all-electron charge restoration on plane wave grid
   NMAXFOCKAE=   1    number of basis functions for all-electron charge restoration
   LFOCKAEDFT=     F  apply the AE augmentation even for DFT
   NKREDX  =     1    reduce k-point grid by
   NKREDY  =     1    reduce k-point grid by
   NKREDZ  =     1    reduce k-point grid by
   SHIFTRED=     F    shift reduced grid of Gamma
   HFKIDENT=     F    idential grid for each k-point
   ODDONLY =     F    use only odd q-grid points
   EVENONLY=     F    use only even q-grid points
   HFALPHA =   -1.0000 decay constant for conv. correction
   MCALPHA =    0.0000 extent of test-charge in conv. correction in multipole expansion
   AEXX    =    0.2500 exact exchange contribution
   HFSCREEN=    0.2000 screening length (either q_TF or 0.3 A-1)
   HFSCREENC=   0.2000 screening length for correlation (either q_TF or 0.3 A-1)
   HFRCUT  =    0.0000 spherical cutoff for potential kernel
   ALDAX   =    0.7500 LDA exchange part
   AGGAX   =    0.7500 GGA exchange part
   ALDAC   =    1.0000 LDA correlation
   AGGAC   =    1.0000 GGA correlation
   ENCUTFOCK=  -1.0 apply spherical cutoff to Coloumb kernel
   NBANDSGWLOW=     1    first orbital included in HF term
   NBLOCK_FOCK=    64    blocking factor in FOCK_ACC
 Linear response parameters
   LEPSILON=     F    determine dielectric tensor
   LRPA    =     F    only Hartree local field effects (RPA)
   LNABLA  =     F    use nabla operator in PAW spheres
   LVEL    =     F    velocity operator in full k-point grid
   LINTERFAST=   F  fast interpolation
   KINTER  =     0    interpolate to denser k-point grid
   CSHIFT  =0.1000    complex shift for real part using Kramers Kronig
   OMEGAMAX=  -1.0    maximum frequency
   DEG_THRESHOLD= 0.2000000E-02 threshold for treating states as degnerate
   RTIME   =   -0.100 relaxation time in fs
  (WPLASMAI=    0.000 imaginary part of plasma frequency in eV, 0.658/RTIME)
   DFIELD  = 0.0000000 0.0000000 0.0000000 field for delta impulse in time

 Orbital magnetization related:
   ORBITALMAG=     F  switch on orbital magnetization
   LCHIMAG   =     F  perturbation theory with respect to B field
   DQ        =  0.001000  dq finite difference perturbation B field
   LLRAUG    =     F  two centre corrections for induced B field



--------------------------------------------------------------------------------------------------------


 Static calculation
 charge density and potential will be updated during run
 non collinear spin polarized calculation
 Conjugate gradient for all bands (Freysoldt, et al. PRB 79, 241103 (2009))
 preconditioned conjugated gradient                                        
 perform sub-space diagonalisation
    before iterative eigenvector-optimisation
 modified Broyden-mixing scheme, WC =      100.0
 initial mixing is a Kerker type mixing with AMIX =  0.4000 and BMIX =      1.0000
 Hartree-type preconditioning will be used
 using additional bands          538
 reciprocal scheme for non local part
 use partial core corrections
 no Harris-corrections to forces 
 use gradient corrections 
 use of overlap-Matrix (Vanderbilt PP)
 Gauss-broadening in eV      SIGMA  =   0.05


--------------------------------------------------------------------------------------------------------


  energy-cutoff  :      450.00
  volume of cell :     2241.29
      direct lattice vectors                 reciprocal lattice vectors
    13.086768000  0.000000000  0.000000000     0.076413061  0.000000000  0.000000000
     0.000000000 13.086768000  0.000000000     0.000000000  0.076413061  0.000000000
     0.000000000  0.000000000 13.086768000     0.000000000  0.000000000  0.076413061

  length of vectors
    13.086768000 13.086768000 13.086768000     0.076413061  0.076413061  0.076413061



 k-points in units of 2pi/SCALE and weight: Automatically generated mesh            
   0.00000000  0.00000000  0.00000000       0.125
   0.03820653  0.00000000  0.00000000       0.125
   0.00000000  0.03820653  0.00000000       0.125
   0.03820653  0.03820653  0.00000000       0.125
   0.00000000  0.00000000  0.03820653       0.125
   0.03820653  0.00000000  0.03820653       0.125
   0.00000000  0.03820653  0.03820653       0.125
   0.03820653  0.03820653  0.03820653       0.125

 k-points in reciprocal lattice and weights: Automatically generated mesh            
   0.00000000  0.00000000  0.00000000       0.125
   0.50000000  0.00000000  0.00000000       0.125
   0.00000000  0.50000000  0.00000000       0.125
   0.50000000  0.50000000  0.00000000       0.125
   0.00000000  0.00000000  0.50000000       0.125
   0.50000000  0.00000000  0.50000000       0.125
   0.00000000  0.50000000  0.50000000       0.125
   0.50000000  0.50000000  0.50000000       0.125

 position of ions in fractional coordinates (direct lattice) 
   0.00448500  0.99551500  0.00448500
   0.00124700  0.99875300  0.49695900
   0.00124700  0.50304100  0.00124700
   0.99962500  0.50121800  0.49878200
   0.49695900  0.99875300  0.00124700
   0.49878100  0.00037500  0.49878100
   0.49878100  0.50121900  0.99962500
   0.50052800  0.49947200  0.50052800
   0.00124700  0.25124700  0.25304000
   0.00448600  0.25448500  0.74551500
   0.99962500  0.74878200  0.25121800
   0.00124700  0.74695900  0.74875300
   0.49878200  0.24962500  0.25121900
   0.49696000  0.25124700  0.74875300
   0.50052800  0.75052800  0.24947200
   0.49878100  0.74878100  0.75037500
   0.25121900  0.00037500  0.25121900
   0.25304000  0.99875300  0.74875300
   0.24947200  0.49947200  0.24947200
   0.25121900  0.50121900  0.75037500
   0.74875300  0.99875300  0.25304000
   0.74551400  0.99551500  0.74551500
   0.75037500  0.50121900  0.25121900
   0.74875300  0.50304000  0.74875300
   0.25304000  0.25124700  0.00124700
   0.25121900  0.24962500  0.49878100
   0.25121900  0.74878100  0.99962500
   0.24947200  0.75052800  0.50052800
   0.74551400  0.25448500  0.00448500
   0.74875300  0.25124700  0.49696000
   0.74875300  0.74695900  0.00124700
   0.75037500  0.74878200  0.49878200
   0.87500000  0.12500000  0.87500000
   0.12665600  0.12500000  0.37500000
   0.13277900  0.12500000  0.87500000
   0.12589200  0.62500000  0.37500000
   0.12665600  0.62500000  0.87500000
   0.62334400  0.12500000  0.37500000
   0.61722100  0.12500000  0.87500000
   0.62410800  0.62500000  0.37500000
   0.62334400  0.62500000  0.87500000
   0.12484800  0.37484800  0.12484800
   0.12748800  0.37748800  0.62251200
   0.12748800  0.87251200  0.12748800
   0.12484800  0.87515200  0.62515200
   0.62251200  0.37748800  0.12748800
   0.62515200  0.37484800  0.62515200
   0.62515200  0.87515200  0.12484800
   0.62251200  0.87251200  0.62251200
   0.37500000  0.12500000  0.12665600
   0.37500000  0.12500000  0.62334400
   0.37500000  0.62500000  0.12589200
   0.37500000  0.62500000  0.62410800
   0.87500000  0.12500000  0.13277900
   0.87500000  0.12500000  0.61722100
   0.87500000  0.62500000  0.12665600
   0.87500000  0.62500000  0.62334400
   0.37500000  0.37589200  0.37500000
   0.37500000  0.37665600  0.87500000
   0.37500000  0.87410800  0.37500000
   0.37500000  0.87334400  0.87500000
   0.87500000  0.37665600  0.37500000
   0.87500000  0.38277900  0.87500000
   0.87500000  0.87334400  0.37500000
   0.87500000  0.86722100  0.87500000

 position of ions in cartesian coordinates  (Angst):
   0.05869415 13.02807385  0.05869415
   0.01631920 13.07044880  6.50358714
   0.01631920  6.58318086  0.01631920
  13.08186046  6.55932368  6.52744432
   6.50358714 13.07044880  0.01631920
   6.52743123  0.00490754  6.52743123
   6.52743123  6.55933677 13.08186046
   6.55029381  6.53647419  6.55029381
   0.01631920  3.28801120  3.31147577
   0.05870724  3.33038615  9.75638185
  13.08186046  9.79913632  3.28763168
   0.01631920  9.77527914  9.79875680
   6.52744432  3.26678446  3.28764477
   6.50360023  3.28801120  9.79875680
   6.55029381  9.82198581  3.26478219
   6.52743123  9.79912323  9.81998354
   3.28764477  0.00490754  3.28764477
   3.31147577 13.07044880  9.79875680
   3.26478219  6.53647419  3.26478219
   3.28764477  6.55933677  9.81998354
   9.79875680 13.07044880  3.31147577
   9.75636876 13.02807385  9.75638185
   9.81998354  6.55933677  3.28764477
   9.79875680  6.58316777  9.79875680
   3.31147577  3.28801120  0.01631920
   3.28764477  3.26678446  6.52743123
   3.28764477  9.79912323 13.08186046
   3.26478219  9.82198581  6.55029381
   9.75636876  3.33038615  0.05869415
   9.79875680  3.28801120  6.50360023
   9.79875680  9.77527914  0.01631920
   9.81998354  9.79913632  6.52744432
  11.45092200  1.63584600 11.45092200
   1.65751769  1.63584600  4.90753800
   1.73764797  1.63584600 11.45092200
   1.64751940  8.17923000  4.90753800
   1.65751769  8.17923000 11.45092200
   8.15755831  1.63584600  4.90753800
   8.07742803  1.63584600 11.45092200
   8.16755660  8.17923000  4.90753800
   8.15755831  8.17923000 11.45092200
   1.63385681  4.90554881  1.63385681
   1.66840588  4.94009788  8.14667012
   1.66840588 11.41836212  1.66840588
   1.63385681 11.45291119  8.18121919
   8.14667012  4.94009788  1.66840588
   8.18121919  4.90554881  8.18121919
   8.18121919 11.45291119  1.63385681
   8.14667012 11.41836212  8.14667012
   4.90753800  1.63584600  1.65751769
   4.90753800  1.63584600  8.15755831
   4.90753800  8.17923000  1.64751940
   4.90753800  8.17923000  8.16755660
  11.45092200  1.63584600  1.73764797
  11.45092200  1.63584600  8.07742803
  11.45092200  8.17923000  1.65751769
  11.45092200  8.17923000  8.15755831
   4.90753800  4.91921140  4.90753800
   4.90753800  4.92920969 11.45092200
   4.90753800 11.43924860  4.90753800
   4.90753800 11.42925031 11.45092200
  11.45092200  4.92920969  4.90753800
  11.45092200  5.00933997 11.45092200
  11.45092200 11.42925031  4.90753800
  11.45092200 11.34912003 11.45092200

 Euler angles ALPHA=     0.0000000  BETA=     0.0000000

 transformation matrix from SAXIS to cartesian coordinates
 ---------------------------------------------------------
     1.0000000 m_x    -0.0000000 m_y     0.0000000 m_z
     0.0000000 m_x     1.0000000 m_y     0.0000000 m_z
    -0.0000000 m_x     0.0000000 m_y     1.0000000 m_z

 transformation matrix from cartesian coordinates to SAXIS
 ---------------------------------------------------------
     1.0000000 m_x     0.0000000 m_y    -0.0000000 m_z
    -0.0000000 m_x     1.0000000 m_y     0.0000000 m_z
     0.0000000 m_x     0.0000000 m_y     1.0000000 m_z




--------------------------------------------------------------------------------------------------------


 k-point  1 :   0.0000 0.0000 0.0000  plane waves:   97002
 k-point  2 :   0.5000 0.0000 0.0000  plane waves:   97356
 k-point  3 :   0.0000 0.5000 0.0000  plane waves:   97356
 k-point  4 :   0.5000 0.5000 0.0000  plane waves:   96960
 k-point  5 :   0.0000 0.0000 0.5000  plane waves:   97356
 k-point  6 :   0.5000 0.0000 0.5000  plane waves:   96960
 k-point  7 :   0.0000 0.5000 0.5000  plane waves:   96960
 k-point  8 :   0.5000 0.5000 0.5000  plane waves:   96832

 maximum and minimum number of plane-waves per node :      3116     2976

 maximum number of plane-waves:     97356
 maximum index in each direction: 
   IXMAX=   22   IYMAX=   22   IZMAX=   22
   IXMIN=  -23   IYMIN=  -23   IZMIN=  -23


 parallel 3D FFT for wavefunctions:
    minimum data exchange during FFTs selected (reduces bandwidth)
 parallel 3D FFT for charge:
    minimum data exchange during FFTs selected (reduces bandwidth)


 FFT grid for exact exchange (Hartree Fock) 
  NGX = 48; NGY = 48; NGZ = 48


 Radii for the augmentation spheres in the non-local exchange
 for species   1 augmentation radius   1.444 (default was   1.070)
       energy cutoff for augmentation   1800.0
 for species   2 augmentation radius   1.606 (default was   1.190)
       energy cutoff for augmentation   1800.0

 real space projection operators:
  total allocation   :       9375.20 KBytes
  max/ min on nodes  :        432.62        141.21

 Maximum index for augmentation-charges in exchange           97
  SETUP_FOCK is finished

 total amount of memory used by VASP MPI-rank0    71825. kBytes
=======================================================================

   base      :      30000. kBytes
   nonl-proj :       5136. kBytes
   fftplans  :       6592. kBytes
   grid      :      12386. kBytes
   one-center:        186. kBytes
   HF        :        129. kBytes
   nonlr-proj:       1424. kBytes
   wavefun   :      15972. kBytes

     INWAV:  cpu time    0.0001: real time    0.0004
 Broyden mixing: mesh for mixing (old mesh)
   NGX = 45   NGY = 45   NGZ = 45
  (NGX  =192   NGY  =192   NGZ  =192)
  gives a total of  91125 points

 initial charge density was supplied:
 charge density of overlapping atoms calculated
 number of electron     588.0000000 magnetization      65.0000000     65.0000000     65.0000000
 keeping initial charge density in first step


--------------------------------------------------------------------------------------------------------


 Maximum index for augmentation-charges         3093 (set IRDMAX)


--------------------------------------------------------------------------------------------------------


 First call to EWALD:  gamma=   0.135
 Maximum number of real-space cells 3x 3x 3
 Maximum number of reciprocal cells 3x 3x 3

    FEWALD:  cpu time    0.0094: real time    0.0094


--------------------------------------- Iteration      1(   1)  ---------------------------------------


    POTLOK:  cpu time    0.7027: real time    0.7064
    SETDIJ:  cpu time    1.8910: real time    1.8915
    TRIAL :  cpu time    6.9081: real time    6.9585
    CORREC:  cpu time    0.0018: real time    0.0018
    --------------------------------------------
      LOOP:  cpu time    9.6001: real time    9.6553

 eigenvalue-minimisations  : 13312
 total energy-change (2. order) : 0.4515706E+04  (-0.2571820E+05)
 number of electron     588.0000000 magnetization      65.0000000     65.0000000     65.0000000
 augmentation part      588.0000000 magnetization      65.0000000     65.0000000     65.0000000

 Free energy of the ion-electron system (eV)
  ---------------------------------------------------
  alpha Z        PSCENC =      1642.45118531
  Ewald energy   TEWEN  =    -33940.17512420
  -Hartree energ DENC   =    -17077.89199325
  -exchange      EXHF   =         0.00000000
  -V(xc)+E(xc)   XCENC  =      -617.56595420
  PAW double counting   =     46020.13618675   -43994.38451620
  entropy T*S    EENTRO =        -0.03377039
  eigenvalues    EBANDS =      2733.74447256
  atomic energy  EATOM  =     49749.42546356
  ---------------------------------------------------
  free energy    TOTEN  =      4515.70594995 eV

  energy without entropy =     4515.73972034  energy(sigma->0) =     4515.72283514
  exchange ACFDT corr.  =         0.00000000  see jH, gK, PRB 81, 115126


--------------------------------------------------------------------------------------------------------




--------------------------------------- Iteration      1(   2)  ---------------------------------------


    TRIAL :  cpu time    7.7099: real time    7.7262
    CORREC:  cpu time    0.0018: real time    0.0018
    --------------------------------------------
      LOOP:  cpu time    7.7302: real time    7.7571

 eigenvalue-minimisations  : 14336
 total energy-change (2. order) :-0.3364875E+04  (-0.3214034E+04)
 number of electron     588.0000000 magnetization      65.0000000     65.0000000     65.0000000
 augmentation part      588.0000000 magnetization      65.0000000     65.0000000     65.0000000

 Free energy of the ion-electron system (eV)
  ---------------------------------------------------
  alpha Z        PSCENC =      1642.45118531
  Ewald energy   TEWEN  =    -33940.17512420
  -Hartree energ DENC   =    -17077.89199325
  -exchange      EXHF   =         0.00000000
  -V(xc)+E(xc)   XCENC  =      -617.56595420
  PAW double counting   =     46020.13618675   -43994.38451620
  entropy T*S    EENTRO =        -0.01015488
  eigenvalues    EBANDS =      -631.15383149
  atomic energy  EATOM  =     49749.42546356
  ---------------------------------------------------
  free energy    TOTEN  =      1150.83126141 eV

  energy without entropy =     1150.84141629  energy(sigma->0) =     1150.83633885
  exchange ACFDT corr.  =         0.00000000  see jH, gK, PRB 81, 115126


--------------------------------------------------------------------------------------------------------




--------------------------------------- Iteration      1(   3)  ---------------------------------------


    TRIAL :  cpu time    8.5936: real time    8.6109
    CORREC:  cpu time    0.0015: real time    0.0015
    --------------------------------------------
      LOOP:  cpu time    8.6079: real time    8.6420

 eigenvalue-minimisations  : 15360
 total energy-change (2. order) :-0.2048540E+03  (-0.2026542E+03)
 number of electron     588.0000000 magnetization      65.0000000     65.0000000     65.0000000
 augmentation part      588.0000000 magnetization      65.0000000     65.0000000     65.0000000

 Free energy of the ion-electron system (eV)
  ---------------------------------------------------
  alpha Z        PSCENC =      1642.45118531
  Ewald energy   TEWEN  =    -33940.17512420
  -Hartree energ DENC   =    -17077.89199325
  -exchange      EXHF   =         0.00000000
  -V(xc)+E(xc)   XCENC  =      -617.56595420
  PAW double counting   =     46020.13618675   -43994.38451620
  entropy T*S    EENTRO =        -0.01245141
  eigenvalues    EBANDS =      -836.00557078
  atomic energy  EATOM  =     49749.42546356
  ---------------------------------------------------
  free energy    TOTEN  =       945.97722559 eV

  energy without entropy =      945.98967700  energy(sigma->0) =      945.98345130
  exchange ACFDT corr.  =         0.00000000  see jH, gK, PRB 81, 115126


--------------------------------------------------------------------------------------------------------




--------------------------------------- Iteration      1(   4)  ---------------------------------------


    TRIAL :  cpu time    8.7325: real time    8.7503
    CORREC:  cpu time    0.0015: real time    0.0015
    --------------------------------------------
      LOOP:  cpu time    8.7460: real time    8.7809

 eigenvalue-minimisations  : 15424
 total energy-change (2. order) :-0.4309863E+01  (-0.4303647E+01)
 number of electron     588.0000000 magnetization      65.0000000     65.0000000     65.0000000
 augmentation part      588.0000000 magnetization      65.0000000     65.0000000     65.0000000

 Free energy of the ion-electron system (eV)
  ---------------------------------------------------
  alpha Z        PSCENC =      1642.45118531
  Ewald energy   TEWEN  =    -33940.17512420
  -Hartree energ DENC   =    -17077.89199325
  -exchange      EXHF   =         0.00000000
  -V(xc)+E(xc)   XCENC  =      -617.56595420
  PAW double counting   =     46020.13618675   -43994.38451620
  entropy T*S    EENTRO =        -0.01277932
  eigenvalues    EBANDS =      -840.31510618
  atomic energy  EATOM  =     49749.42546356
  ---------------------------------------------------
  free energy    TOTEN  =       941.66736228 eV

  energy without entropy =      941.68014160  energy(sigma->0) =      941.67375194
  exchange ACFDT corr.  =         0.00000000  see jH, gK, PRB 81, 115126


--------------------------------------------------------------------------------------------------------




--------------------------------------- Iteration      1(   5)  ---------------------------------------


    TRIAL :  cpu time    8.4683: real time    8.4845
    CORREC:  cpu time    0.0015: real time    0.0015
    CHARGE:  cpu time    0.6628: real time    0.6648
    --------------------------------------------
      LOOP:  cpu time    9.1448: real time    9.1807

 eigenvalue-minimisations  : 15232
 total energy-change (2. order) :-0.7685778E-01  (-0.7669838E-01)
 number of electron     588.0000006 magnetization       0.6809913      0.6809841      0.6809911
 augmentation part      145.5208399 magnetization       0.5827001      0.5827277      0.5826848

 Free energy of the ion-electron system (eV)
  ---------------------------------------------------
  alpha Z        PSCENC =      1642.45118531
  Ewald energy   TEWEN  =    -33940.17512420
  -Hartree energ DENC   =    -17077.89199325
  -exchange      EXHF   =         0.00000000
  -V(xc)+E(xc)   XCENC  =      -617.56595420
  PAW double counting   =     46020.13618675   -43994.38451620
  entropy T*S    EENTRO =        -0.01278129
  eigenvalues    EBANDS =      -840.39196199
  atomic energy  EATOM  =     49749.42546356
  ---------------------------------------------------
  free energy    TOTEN  =       941.59050450 eV

  energy without entropy =      941.60328580  energy(sigma->0) =      941.59689515
  exchange ACFDT corr.  =         0.00000000  see jH, gK, PRB 81, 115126


--------------------------------------------------------------------------------------------------------




--------------------------------------- Iteration      1(   6)  ---------------------------------------


    POTLOK:  cpu time    0.6735: real time    0.6752
    SETDIJ:  cpu time    1.8923: real time    1.8925
    TRIAL :  cpu time  264.2299: real time  264.3764
    CORREC:  cpu time 1058.3444: real time 1058.7712
    EDDIAG:  cpu time  259.1695: real time  259.2806
    CHARGE:  cpu time    0.6076: real time    0.6078
    --------------------------------------------
      LOOP:  cpu time 1584.9300: real time 1585.6314

 eigenvalue-minimisations  :     0
 total energy-change (2. order) :-0.1447089E+04  (           NaN)
 number of electron             NaN magnetization             NaN            NaN            NaN
 augmentation part              NaN magnetization             NaN            NaN            NaN

 Free energy of the ion-electron system (eV)
  ---------------------------------------------------
  alpha Z        PSCENC =      1642.45118531
  Ewald energy   TEWEN  =    -33940.17512420
  -Hartree energ DENC   =    -15675.17573908
  -exchange      EXHF   =                NaN
  -V(xc)+E(xc)   XCENC  =      -655.55092720
  PAW double counting   =    120034.81806654  -117946.43878478
  entropy T*S    EENTRO =        -0.00819089
  eigenvalues    EBANDS =     -5176.84334726
  atomic energy  EATOM  =     49749.42546356
  ---------------------------------------------------
  free energy    TOTEN  =      -505.49834253 eV

  energy without entropy =     -505.49015164  energy(sigma->0) =     -505.49424709
  exchange ACFDT corr.  =        -0.01688941  see jH, gK, PRB 81, 115126


--------------------------------------------------------------------------------------------------------


  average scaling for gradient   0.9436


 average (electrostatic) potential at core
  the test charge radii are     1.0698  1.1897
  (the norm of the test charge is              1.0000)
       1 -11.1560       2 -13.5217       3 -13.9609       4 -14.1986       5 -13.8215
       6 -14.7216       7 -14.7257       8 -15.3675       9 -13.8726      10 -10.1511
      11 -14.7720      12 -13.9993      13 -14.7416      14 -13.7629      15 -15.4104
      16 -14.7101      17 -14.5797      18 -13.6190      19 -15.1458      20 -14.5388
      21 -13.7888      22 -10.1174      23 -14.7274      24 -13.7321      25 -13.6116
      26 -14.4744      27 -14.5805      28 -15.1371      29 -10.1309      30 -13.6751
      31 -13.8499      32 -14.6718      33  -4.6622      34 -89.5939      35 -86.5821
      36 -90.4259      37 -89.8106      38 -89.8928      39 -86.6087      40 -90.6803
      41 -89.9120      42 -89.3051      43 -89.0166      44 -89.2405      45 -89.3023
      46 -89.4065      47 -89.5777      48 -89.6850      49 -89.3407      50 -89.9360
      51 -89.9115      52 -90.7254      53 -90.7148      54 -86.9437      55 -86.6427
      56 -90.2648      57 -89.9646      58 -90.7059      59 -89.8585      60 -90.7332
      61 -89.9170      62 -89.8760      63 -86.7539      64 -90.0609      65 -86.8503



 E-fermi :   3.3738     XC(G=0):  -7.3038     alpha+bet : -7.2837


 k-point     1 :       0.0000    0.0000    0.0000
  band No.  band energies     occupation 
      1       2.8963      1.00000
      2       2.8963      1.00000
      3       2.8963      1.00000
      4       2.8963      1.00000
      5       2.8963      1.00000
      6       2.8963      1.00000
      7       2.8963      1.00000
      8       2.8963      1.00000
      9       2.8963      1.00000
     10       2.8963      1.00000
     11       2.8963      1.00000
     12       2.8963      1.00000
     13       2.8963      1.00000
     14       2.8963      1.00000
     15       2.8963      1.00000
     16       2.8963      1.00000
     17       2.8963      1.00000
     18       2.8963      1.00000
     19       2.8963      1.00000
     20       2.8963      1.00000
     21       2.8963      1.00000
     22       2.8963      1.00000
     23       2.8963      1.00000
     24       2.8963      1.00000
     25       2.8963      1.00000
     26       2.8963      1.00000
     27       2.8963      1.00000
     28       2.8963      1.00000
     29       2.8963      1.00000
     30       2.8963      1.00000
     31       2.8963      1.00000
     32       2.8963      1.00000
     33       2.8963      1.00000
     34       2.8963      1.00000
     35       2.8963      1.00000
     36       2.8963      1.00000
     37       2.8963      1.00000
     38       2.8963      1.00000
     39       2.8963      1.00000
     40       2.8963      1.00000
     41       2.8963      1.00000
     42       2.8963      1.00000
     43       2.8963      1.00000
     44       2.8963      1.00000
     45       2.8963      1.00000
     46       2.8963      1.00000
     47       2.8963      1.00000
     48       2.8963      1.00000
     49       2.8963      1.00000
     50       2.8963      1.00000
     51       2.8963      1.00000
     52       2.8963      1.00000
     53       2.8963      1.00000
     54       2.8963      1.00000
     55       2.8963      1.00000
     56       2.8963      1.00000
     57       2.8963      1.00000
     58       2.8963      1.00000
     59       2.8963      1.00000
     60       2.8963      1.00000
     61       2.8963      1.00000
     62       2.8963      1.00000
     63       2.8963      1.00000
     64       2.8963      1.00000
     65       2.8963      1.00000
     66       2.8963      1.00000
     67       2.8963      1.00000
     68       2.8963      1.00000
     69       2.8963      1.00000
     70       2.8963      1.00000
     71       2.8963      1.00000
     72       2.8963      1.00000
     73       2.8963      1.00000
     74       2.8963      1.00000
     75       2.8963      1.00000
     76       2.8963      1.00000
     77       2.8963      1.00000
     78       2.8963      1.00000
     79       2.8963      1.00000
     80       2.8963      1.00000
     81       2.8963      1.00000
     82       2.8963      1.00000
     83       2.8963      1.00000
     84       2.8963      1.00000
     85       2.8963      1.00000
     86       2.8963      1.00000
     87       2.8963      1.00000
     88       2.8963      1.00000
     89       2.8963      1.00000
     90       2.8963      1.00000
     91       2.8963      1.00000
     92       2.8963      1.00000
     93       2.8963      1.00000
     94       2.8963      1.00000
     95       2.8963      1.00000
     96       2.8963      1.00000
     97       2.8963      1.00000
     98       2.8963      1.00000
     99       2.8963      1.00000
    100       2.8963      1.00000
    101       2.8963      1.00000
    102       2.8963      1.00000
    103       2.8963      1.00000
    104       2.8963      1.00000
    105       2.8963      1.00000
    106       2.8963      1.00000
    107       2.8963      1.00000
    108       2.8963      1.00000
    109       2.8963      1.00000
    110       2.8963      1.00000
    111       2.8963      1.00000
    112       2.8963      1.00000
    113       2.8963      1.00000
    114       2.8963      1.00000
    115       2.8963      1.00000
    116       2.8963      1.00000
    117       2.8963      1.00000
    118       2.8963      1.00000
    119       2.8963      1.00000
    120       2.8963      1.00000
    121       2.8963      1.00000
    122       2.8963      1.00000
    123       2.8963      1.00000
    124       2.8963      1.00000
    125       2.8963      1.00000
    126       2.8963      1.00000
    127       2.8963      1.00000
    128       2.8963      1.00000
    129       2.8963      1.00000
    130       2.8963      1.00000
    131       2.8963      1.00000
    132       2.8963      1.00000
    133       2.8963      1.00000
    134       2.8963      1.00000
    135       2.8963      1.00000
    136       2.8963      1.00000
    137       2.8963      1.00000
    138       2.8963      1.00000
    139       2.8963      1.00000
    140       2.8963      1.00000
    141       2.8963      1.00000
    142       2.8963      1.00000
    143       2.8963      1.00000
    144       2.8963      1.00000
    145       2.8963      1.00000
    146       2.8963      1.00000
    147       2.8963      1.00000
    148       2.8963      1.00000
    149       2.8963      1.00000
    150       2.8963      1.00000
    151       2.8963      1.00000
    152       2.8963      1.00000
    153       2.8963      1.00000
    154       2.8963      1.00000
    155       2.8963      1.00000
    156       2.8963      1.00000
    157       2.8963      1.00000
    158       2.8963      1.00000
    159       2.8963      1.00000
    160       2.8963      1.00000
    161       2.8963      1.00000
    162       2.8963      1.00000
    163       2.8963      1.00000
    164       2.8963      1.00000
    165       2.8963      1.00000
    166       2.8963      1.00000
    167       2.8963      1.00000
    168       2.8963      1.00000
    169       2.8963      1.00000
    170       2.8963      1.00000
    171       2.8963      1.00000
    172       2.8963      1.00000
    173       2.8963      1.00000
    174       2.8963      1.00000
    175       2.8963      1.00000
    176       2.8963      1.00000
    177       2.8963      1.00000
    178       2.8963      1.00000
    179       2.8963      1.00000
    180       2.8963      1.00000
    181       2.8963      1.00000
    182       2.8963      1.00000
    183       2.8963      1.00000
    184       2.8963      1.00000
    185       2.8963      1.00000
    186       2.8963      1.00000
    187       2.8963      1.00000
    188       2.8963      1.00000
    189       2.8963      1.00000
    190       2.8963      1.00000
    191       2.8963      1.00000
    192       2.8963      1.00000
    193       2.8963      1.00000
    194       2.8963      1.00000
    195       2.8963      1.00000
    196       2.8963      1.00000
    197       2.8963      1.00000
    198       2.8963      1.00000
    199       2.8963      1.00000
    200       2.8963      1.00000
    201       2.8963      1.00000
    202       2.8963      1.00000
    203       2.8963      1.00000
    204       2.8963      1.00000
    205       2.8963      1.00000
    206       2.8963      1.00000
    207       2.8963      1.00000
    208       2.8963      1.00000
    209       2.8963      1.00000
    210       2.8963      1.00000
    211       2.8963      1.00000
    212       2.8963      1.00000
    213       2.8963      1.00000
    214       2.8963      1.00000
    215       2.8963      1.00000
    216       2.8963      1.00000
    217       2.8963      1.00000
    218       2.8963      1.00000
    219       2.8963      1.00000
    220       2.8963      1.00000
    221       2.8963      1.00000
    222       2.8963      1.00000
    223       2.8963      1.00000
    224       2.8963      1.00000
    225       2.8963      1.00000
    226       2.8963      1.00000
    227       2.8963      1.00000
    228       2.8963      1.00000
    229       2.8963      1.00000
    230       2.8963      1.00000
    231       2.8963      1.00000
    232       2.8963      1.00000
    233       2.8963      1.00000
    234       2.8963      1.00000
    235       2.8963      1.00000
    236       2.8963      1.00000
    237       2.8963      1.00000
    238       2.8963      1.00000
    239       2.8963      1.00000
    240       2.8963      1.00000
    241       2.8963      1.00000
    242       2.8963      1.00000
    243       2.8963      1.00000
    244       2.8963      1.00000
    245       2.8963      1.00000
    246       2.8963      1.00000
    247       2.8963      1.00000
    248       2.8963      1.00000
    249       2.8963      1.00000
    250       2.8963      1.00000
    251       2.8963      1.00000
    252       2.8963      1.00000
    253       2.8963      1.00000
    254       2.8963      1.00000
    255       2.8963      1.00000
    256       2.8963      1.00000
    257       2.8963      1.00000
    258       2.8963      1.00000
    259       2.8963      1.00000
    260       2.8963      1.00000
    261       2.8963      1.00000
    262       2.8963      1.00000
    263       2.8963      1.00000
    264       2.8963      1.00000
    265       2.8963      1.00000
    266       2.8963      1.00000
    267       2.8963      1.00000
    268       2.8963      1.00000
    269       2.8963      1.00000
    270       2.8963      1.00000
    271       2.8963      1.00000
    272       2.8963      1.00000
    273       2.8963      1.00000
    274       2.8963      1.00000
    275       2.8963      1.00000
    276       2.8963      1.00000
    277       2.8963      1.00000
    278       2.8963      1.00000
    279       2.8963      1.00000
    280       2.8963      1.00000
    281       2.8963      1.00000
    282       2.8963      1.00000
    283       2.8963      1.00000
    284       2.8963      1.00000
    285       2.8963      1.00000
    286       2.8963      1.00000
    287       2.8963      1.00000
    288       2.8963      1.00000
    289       2.8963      1.00000
    290       2.8963      1.00000
    291       2.8963      1.00000
    292       2.8963      1.00000
    293       2.8963      1.00000
    294       2.8963      1.00000
    295       2.8963      1.00000
    296       2.8963      1.00000
    297       2.8963      1.00000
    298       2.8963      1.00000
    299       2.8963      1.00000
    300       2.8963      1.00000
    301       2.8963      1.00000
    302       2.8963      1.00000
    303       2.8963      1.00000
    304       2.8963      1.00000
    305       2.8963      1.00000
    306       2.8963      1.00000
    307       2.8963      1.00000
    308       2.8963      1.00000
    309       2.8963      1.00000
    310       2.8963      1.00000
    311       2.8963      1.00000
    312       2.8963      1.00000
    313       2.8963      1.00000
    314       2.8963      1.00000
    315       2.8963      1.00000
    316       2.8963      1.00000
    317       2.8963      1.00000
    318       2.8963      1.00000
    319       2.8963      1.00000
    320       2.8963      1.00000
    321       2.8963      1.00000
    322       2.8963      1.00000
    323       2.8963      1.00000
    324       2.8963      1.00000
    325       2.8963      1.00000
    326       2.8963      1.00000
    327       2.8963      1.00000
    328       2.8963      1.00000
    329       2.8963      1.00000
    330       2.8963      1.00000
    331       2.8963      1.00000
    332       2.8963      1.00000
    333       2.8963      1.00000
    334       2.8963      1.00000
    335       2.8963      1.00000
    336       2.8963      1.00000
    337       2.8963      1.00000
    338       2.8963      1.00000
    339       2.8963      1.00000
    340       2.8963      1.00000
    341       2.8963      1.00000
    342       2.8963      1.00000
    343       2.8963      1.00000
    344       2.8963      1.00000
    345       2.8963      1.00000
    346       2.8963      1.00000
    347       2.8963      1.00000
    348       2.8963      1.00000
    349       2.8963      1.00000
    350       2.8963      1.00000
    351       2.8963      1.00000
    352       2.8963      1.00000
    353       2.8963      1.00000
    354       2.8963      1.00000
    355       2.8963      1.00000
    356       2.8963      1.00000
    357       2.8963      1.00000
    358       2.8963      1.00000
    359       2.8963      1.00000
    360       2.8963      1.00000
    361       2.8963      1.00000
    362       2.8963      1.00000
    363       2.8963      1.00000
    364       2.8963      1.00000
    365       2.8963      1.00000
    366       2.8963      1.00000
    367       2.8963      1.00000
    368       2.8963      1.00000
    369       2.8963      1.00000
    370       2.8963      1.00000
    371       2.8963      1.00000
    372       2.8963      1.00000
    373       2.8963      1.00000
    374       2.8963      1.00000
    375       2.8963      1.00000
    376       2.8963      1.00000
    377       2.8963      1.00000
    378       2.8963      1.00000
    379       2.8963      1.00000
    380       2.8963      1.00000
    381       2.8963      1.00000
    382       2.8963      1.00000
    383       2.8963      1.00000
    384       2.8963      1.00000
    385       2.8963      1.00000
    386       2.8963      1.00000
    387       2.8963      1.00000
    388       2.8963      1.00000
    389       2.8963      1.00000
    390       2.8963      1.00000
    391       2.8963      1.00000
    392       2.8963      1.00000
    393       2.8963      1.00000
    394       2.8963      1.00000
    395       2.8963      1.00000
    396       2.8963      1.00000
    397       2.8963      1.00000
    398       2.8963      1.00000
    399       2.8963      1.00000
    400       2.8963      1.00000
    401       2.8963      1.00000
    402       2.8963      1.00000
    403       2.8963      1.00000
    404       2.8963      1.00000
    405       2.8963      1.00000
    406       2.8963      1.00000
    407       2.8963      1.00000
    408       2.8963      1.00000
    409       2.8963      1.00000
    410       2.8963      1.00000
    411       2.8963      1.00000
    412       2.8963      1.00000
    413       2.8963      1.00000
    414       2.8963      1.00000
    415       2.8963      1.00000
    416       2.8963      1.00000
    417       2.8963      1.00000
    418       2.8963      1.00000
    419       2.8963      1.00000
    420       2.8963      1.00000
    421       2.8963      1.00000
    422       2.8963      1.00000
    423       2.8963      1.00000
    424       2.8963      1.00000
    425       2.8963      1.00000
    426       2.8963      1.00000
    427       2.8963      1.00000
    428      12.0728      1.00000
    429      12.0728      1.00000
    430      12.0728      1.00000
    431      12.0728      1.00000
    432      12.0728      1.00000
    433      12.0728      1.00000
    434      12.0728      1.00000
    435      12.0728      1.00000
    436      12.0728      1.00000
    437      12.0728      1.00000
    438      12.0728      1.00000
    439      12.0728      1.00000
    440      12.0728      1.00000
    441      12.0728      1.00000
    442      12.0728      1.00000
    443      12.0728      1.00000
    444      12.0728      1.00000
    445      12.0728      1.00000
    446      12.0728      1.00000
    447      12.0728      1.00000
    448      12.0728      1.00000
    449      12.0728      1.00000
    450      12.0728      1.00000
    451      12.0728      1.00000
    452      12.0728      1.00000
    453      12.0728      1.00000
    454      12.0728      1.00000
    455      12.0728      1.00000
    456      12.0728      1.00000
    457      12.0728      1.00000
    458      12.0728      1.00000
    459      12.0728      1.00000
    460      12.0728      1.00000
    461      12.0728      1.00000
    462      12.0728      1.00000
    463      12.0728      1.00000
    464      12.0728      1.00000
    465      12.0728      1.00000
    466      12.0728      1.00000
    467      12.0728      1.00000
    468      12.0728      1.00000
    469      12.0728      1.00000
    470      12.0728      1.00000
    471      12.0728      1.00000
    472      12.0728      1.00000
    473      12.0728      1.00000
    474      12.0728      1.00000
    475      12.0728      1.00000
    476      12.0728      1.00000
    477      12.0728      1.00000
    478      12.0728      1.00000
    479      12.0728      1.00000
    480      12.0728      1.00000
    481      12.0728      1.00000
    482      12.0728      1.00000
    483      12.0728      1.00000
    484      12.0728      1.00000
    485      12.0728      1.00000
    486      12.0728      1.00000
    487      12.0728      1.00000
    488      12.0728      1.00000
    489      12.0728      1.00000
    490      12.0728      1.00000
    491      12.0728      1.00000
    492      12.0728      1.00000
    493      12.0728      1.00000
    494      12.0728      1.00000
    495      12.0728      1.00000
    496      12.0728      1.00000
    497      12.0728      1.00000
    498      12.0728      1.00000
    499      12.0728      1.00000
    500      12.0728      1.00000
    501      12.0728      1.00000
    502      12.0728      1.00000
    503      12.0728      1.00000
    504      12.0728      1.00000
    505      12.0728      1.00000
    506      12.0728      1.00000
    507      12.0728      1.00000
    508      12.0728      1.00000
    509      12.0728      1.00000
    510      12.0728      1.00000
    511      12.0728      1.00000
    512      12.0728      1.00000
    513      12.0728      1.00000
    514      12.0728      1.00000
    515      12.0728      1.00000
    516      12.0728      1.00000
    517      12.0728      1.00000
    518      12.0728      1.00000
    519      12.0728      1.00000
    520      12.0728      1.00000
    521      12.0728      1.00000
    522      12.0728      1.00000
    523      12.0728      1.00000
    524      12.0728      1.00000
    525      12.0728      1.00000
    526      12.0728      1.00000
    527      12.0728      1.00000
    528      12.0728      1.00000
    529      12.0728      1.00000
    530      12.0728      1.00000
    531      12.0728      1.00000
    532      12.0728      1.00000
    533      12.0728      1.00000
    534      12.0728      1.00000
    535      12.0728      1.00000
    536      12.0728      1.00000
    537      12.0728      1.00000
    538      12.0728      1.00000
    539      12.0728      1.00000
    540      12.0728      1.00000
    541      12.0728      1.00000
    542      12.0728      1.00000
    543      12.0728      1.00000
    544      12.0728      1.00000
    545      12.0728      1.00000
    546      12.0728      1.00000
    547      12.0728      1.00000
    548      12.0728      1.00000
    549      12.0728      1.00000
    550      12.0728      1.00000
    551      12.0728      1.00000
    552      12.0728      1.00000
    553      12.0728      1.00000
    554      12.0728      1.00000
    555      12.0728      1.00000
    556      12.0728      1.00000
    557      12.0728      1.00000
    558      12.0728      1.00000
    559      12.0728      1.00000
    560      12.0728      1.00000
    561      12.0728      1.00000
    562      12.0728      1.00000
    563      12.0728      1.00000
    564      12.0728      1.00000
    565      12.0728      1.00000
    566      12.0728      1.00000
    567      12.0728      1.00000
    568      12.0728      1.00000
    569      12.0728      1.00000
    570      12.0728      1.00000
    571      12.0728      1.00000
    572      12.0728      1.00000
    573      12.0728      1.00000
    574      12.0728      1.00000
    575      12.0728      1.00000
    576      12.0728      1.00000
    577      12.0728      1.00000
    578      12.0728      1.00000
    579      12.0728      1.00000
    580      12.0728      1.00000
    581      12.0728      1.00000
    582      12.0728      1.00000
    583      12.0728      1.00000
    584      12.0728      1.00000
    585      12.0728      1.00000
    586      12.0728      1.00000
    587      12.0728      1.00000
    588       6.5588      0.94663
    589       6.7082      0.86479
    590       6.7156      0.82648
    591       6.7620      0.61992
    592       6.7882      0.38997
    593       6.8557      0.28390
    594       6.8952      0.00000
    595       6.8962      0.00000
    596       7.0908      0.00000
    597       7.1209      0.00000
    598       7.1400      0.00000
    599       7.1837      0.00000
    600       7.1923      0.00000
    601       7.2072      0.00000
    602       7.2178      0.00000
    603       7.2217      0.00000
    604       7.2387      0.00000
    605       7.2447      0.00000
    606       7.2669      0.00000
    607       7.2744      0.00000
    608       7.2773      0.00000
    609       7.2902      0.00000
    610       7.2913      0.00000
    611       7.2992      0.00000
    612       7.3371      0.00000
    613       7.3430      0.00000
    614       7.3505      0.00000
    615       7.3585      0.00000
    616       7.3993      0.00000
    617       7.4106      0.00000
    618       7.4737      0.00000
    619       7.4744      0.00000
    620       7.4815      0.00000
    621       7.4922      0.00000
    622       7.4923      0.00000
    623       7.4996      0.00000
    624       7.5558      0.00000
    625       7.5736      0.00000
    626       7.5828      0.00000
    627       7.5880      0.00000
    628       7.6007      0.00000
    629       7.6101      0.00000
    630       7.6134      0.00000
    631       7.6159      0.00000
    632       7.6283      0.00000
    633       7.6329      0.00000
    634       7.6596      0.00000
    635       7.6708      0.00000
    636       7.6713      0.00000
    637       7.6878      0.00000
    638       7.7153      0.00000
    639       7.7185      0.00000
    640       7.7307      0.00000
    641       7.7818      0.00000
    642       7.8322      0.00000
    643       7.8424      0.00000
    644       7.8614      0.00000
    645       7.8861      0.00000
    646       7.8971      0.00000
    647       7.9047      0.00000
    648       7.9223      0.00000
    649       7.9542      0.00000
    650       8.0453      0.00000
    651       8.0517      0.00000
    652       8.0713      0.00000
    653       8.0784      0.00000
    654       8.0870      0.00000
    655       8.0942      0.00000
    656       8.1030      0.00000
    657       8.1088      0.00000
    658       8.1343      0.00000
    659       8.1591      0.00000
    660       8.1672      0.00000
    661       8.1721      0.00000
    662       8.1730      0.00000
    663       8.1806      0.00000
    664       8.1999      0.00000
    665       8.2157      0.00000
    666       8.2207      0.00000
    667       8.2343      0.00000
    668       8.2480      0.00000
    669       8.2603      0.00000
    670       8.2613      0.00000
    671       8.2619      0.00000
    672       8.2784      0.00000
    673       8.2862      0.00000
    674       8.2909      0.00000
    675       8.2934      0.00000
    676       8.3072      0.00000
    677       8.3082      0.00000
    678       8.3312      0.00000
    679       8.3445      0.00000
    680       8.3719      0.00000
    681       8.3864      0.00000
    682       8.3899      0.00000
    683       8.3972      0.00000
    684       8.3991      0.00000
    685       8.4154      0.00000
    686       8.4306      0.00000
    687       8.4390      0.00000
    688       8.5102      0.00000
    689       8.5105      0.00000
    690       8.5661      0.00000
    691       8.5682      0.00000
    692       8.5704      0.00000
    693       8.5765      0.00000
    694       8.5846      0.00000
    695       8.5918      0.00000
    696       8.5977      0.00000
    697       8.6056      0.00000
    698       8.6264      0.00000
    699       8.6310      0.00000
    700       8.6473      0.00000
    701       8.6485      0.00000
    702       8.6700      0.00000
    703       8.6776      0.00000
    704       8.6806      0.00000
    705       8.7085      0.00000
    706       8.7230      0.00000
    707       8.7473      0.00000
    708       8.7640      0.00000
    709       8.8055      0.00000
    710       8.8350      0.00000
    711       8.8658      0.00000
    712       8.8745      0.00000
    713       8.8747      0.00000
    714       8.8901      0.00000
    715       8.8975      0.00000
    716       8.9097      0.00000
    717       8.9165      0.00000
    718       8.9216      0.00000
    719       8.9399      0.00000
    720       8.9492      0.00000
    721       8.9845      0.00000
    722       9.0185      0.00000
    723       9.0350      0.00000
    724       9.0691      0.00000
    725       9.0828      0.00000
    726       9.0843      0.00000
    727       9.0860      0.00000
    728       9.0907      0.00000
    729       9.1006      0.00000
    730       9.1069      0.00000
    731       9.1299      0.00000
    732       9.1460      0.00000
    733       9.1518      0.00000
    734       9.1564      0.00000
    735       9.1622      0.00000
    736       9.1671      0.00000
    737       9.1697      0.00000
    738       9.1729      0.00000
    739       9.1818      0.00000
    740       9.1978      0.00000
    741       9.1992      0.00000
    742       9.1999      0.00000
    743       9.2002      0.00000
    744       9.2005      0.00000
    745       9.2087      0.00000
    746       9.2260      0.00000
    747       9.2289      0.00000
    748       9.2374      0.00000
    749       9.2454      0.00000
    750       9.2640      0.00000
    751       9.2640      0.00000
    752       9.2674      0.00000
    753       9.2699      0.00000
    754       9.2805      0.00000
    755       9.2996      0.00000
    756       9.3111      0.00000
    757       9.3298      0.00000
    758       9.3340      0.00000
    759       9.3341      0.00000
    760       9.3354      0.00000
    761       9.3470      0.00000
    762       9.3511      0.00000
    763       9.3649      0.00000
    764       9.3681      0.00000
    765       9.3698      0.00000
    766       9.3748      0.00000
    767       9.3839      0.00000
    768       9.3988      0.00000
    769       9.4031      0.00000
    770       9.4258      0.00000
    771       9.4306      0.00000
    772       9.4339      0.00000
    773       9.4356      0.00000
    774       9.4372      0.00000
    775       9.4460      0.00000
    776       9.4485      0.00000
    777       9.4563      0.00000
    778       9.4579      0.00000
    779       9.4598      0.00000
    780       9.4603      0.00000
    781       9.4696      0.00000
    782       9.4761      0.00000
    783       9.4820      0.00000
    784       9.4913      0.00000
    785       9.4975      0.00000
    786       9.4989      0.00000
    787       9.5232      0.00000
    788       9.5263      0.00000
    789       9.5360      0.00000
    790       9.5387      0.00000
    791       9.5510      0.00000
    792       9.5517      0.00000
    793       9.5591      0.00000
    794       9.5648      0.00000
    795       9.5764      0.00000
    796       9.5774      0.00000
    797       9.5798      0.00000
    798       9.5812      0.00000
    799       9.5826      0.00000
    800       9.5864      0.00000
    801       9.5870      0.00000
    802       9.6038      0.00000
    803       9.6039      0.00000
    804       9.6087      0.00000
    805       9.6144      0.00000
    806       9.6288      0.00000
    807       9.6333      0.00000
    808       9.7196      0.00000
    809       9.7219      0.00000
    810       9.7298      0.00000
    811       9.7694      0.00000
    812       9.7999      0.00000
    813       9.8221      0.00000
    814       9.9091      0.00000
    815       9.9103      0.00000
    816       9.9332      0.00000
    817       9.9341      0.00000
    818       9.9474      0.00000
    819       9.9655      0.00000
    820       9.9874      0.00000
    821      10.0411      0.00000
    822      10.0914      0.00000
    823      10.1240      0.00000
    824      10.1334      0.00000
    825      10.1350      0.00000
    826      10.5908      0.00000
    827      10.6013      0.00000
    828      10.6205      0.00000
    829      10.6460      0.00000
    830      40.5995      0.00000
    831      66.9673      0.00000
    832      78.1199      0.00000

 k-point     2 :       0.5000    0.0000    0.0000
  band No.  band energies     occupation 
      1      -4.9004      1.00000
      2      -4.9004      1.00000
      3      -4.9004      1.00000
      4      -4.9004      1.00000
      5      -4.9004      1.00000
      6      -4.9004      1.00000
      7      -4.9004      1.00000
      8      -4.9004      1.00000
      9      -4.9004      1.00000
     10      -4.9004      1.00000
     11      -4.9004      1.00000
     12      -4.9004      1.00000
     13      -4.9004      1.00000
     14      -4.9004      1.00000
     15      -4.9004      1.00000
     16      -4.9004      1.00000
     17      -4.9004      1.00000
     18      -4.9004      1.00000
     19      -4.9004      1.00000
     20      -4.9004      1.00000
     21      -4.9004      1.00000
     22      -4.9004      1.00000
     23      -4.9004      1.00000
     24      -4.9004      1.00000
     25      -4.9004      1.00000
     26      -4.9004      1.00000
     27      -4.9004      1.00000
     28      -4.9004      1.00000
     29      -4.9004      1.00000
     30      -4.9004      1.00000
     31      -4.9004      1.00000
     32      -4.9004      1.00000
     33      -4.9004      1.00000
     34      -4.9004      1.00000
     35      -4.9004      1.00000
     36      -4.9004      1.00000
     37      -4.9004      1.00000
     38      -4.9004      1.00000
     39      -4.9004      1.00000
     40      -4.9004      1.00000
     41      -4.9004      1.00000
     42      -4.9004      1.00000
     43      -4.9004      1.00000
     44      -4.9004      1.00000
     45      -4.9004      1.00000
     46      -4.9004      1.00000
     47      -4.9004      1.00000
     48      -4.9004      1.00000
[...]
  0.085  -0.000   0.088   0.000   0.050  -0.000  -0.001   0.000   0.087  -0.000   0.084  -0.000   0.087   0.000   0.049  -0.000
 -0.001  -0.000  -0.088  -0.000   0.100  -0.000   0.086  -0.000   0.000  -0.000  -0.001  -0.000  -0.087  -0.000   0.098  -0.000
 -0.088  -0.000  -0.001  -0.000  -0.048   0.000   0.088  -0.000   0.083  -0.000  -0.086  -0.000  -0.001  -0.000  -0.047   0.000
  0.092  -0.000   0.095   0.000   0.054  -0.000  -0.002   0.000   0.093  -0.000   0.090  -0.000   0.093   0.000   0.053  -0.000
 -0.002  -0.000  -0.095   0.000   0.107  -0.000   0.092  -0.000   0.000  -0.000  -0.002  -0.000  -0.093   0.000   0.106  -0.000
 -0.094  -0.000  -0.002  -0.000  -0.052   0.000   0.095  -0.000   0.090  -0.000  -0.093  -0.000  -0.002  -0.000  -0.051   0.000
 total augmentation occupancy for first ion, spin component:           1
    NaN     NaN     NaN     NaN     NaN     NaN     NaN     NaN     NaN     NaN     NaN     NaN     NaN     NaN     NaN     NaN
    NaN     NaN     NaN     NaN     NaN     NaN     NaN     NaN     NaN     NaN     NaN     NaN     NaN     NaN     NaN     NaN
    NaN     NaN     NaN     NaN     NaN     NaN     NaN     NaN     NaN     NaN     NaN     NaN     NaN     NaN     NaN     NaN
    NaN     NaN     NaN     NaN     NaN     NaN     NaN     NaN     NaN     NaN     NaN     NaN     NaN     NaN     NaN     NaN
    NaN     NaN     NaN     NaN     NaN     NaN     NaN     NaN     NaN     NaN     NaN     NaN     NaN     NaN     NaN     NaN
    NaN     NaN     NaN     NaN     NaN     NaN     NaN     NaN     NaN     NaN     NaN     NaN     NaN     NaN     NaN     NaN
    NaN     NaN     NaN     NaN     NaN     NaN     NaN     NaN     NaN     NaN     NaN     NaN     NaN     NaN     NaN     NaN
    NaN     NaN     NaN     NaN     NaN     NaN     NaN     NaN     NaN     NaN     NaN     NaN     NaN     NaN     NaN     NaN
    NaN     NaN     NaN     NaN     NaN     NaN     NaN     NaN     NaN     NaN     NaN     NaN     NaN     NaN     NaN     NaN
    NaN     NaN     NaN     NaN     NaN     NaN     NaN     NaN     NaN     NaN     NaN     NaN     NaN     NaN     NaN     NaN
    NaN     NaN     NaN     NaN     NaN     NaN     NaN     NaN     NaN     NaN     NaN     NaN     NaN     NaN     NaN     NaN
    NaN     NaN     NaN     NaN     NaN     NaN     NaN     NaN     NaN     NaN     NaN     NaN     NaN     NaN     NaN     NaN
    NaN     NaN     NaN     NaN     NaN     NaN     NaN     NaN     NaN     NaN     NaN     NaN     NaN     NaN     NaN     NaN
    NaN     NaN     NaN     NaN     NaN     NaN     NaN     NaN     NaN     NaN     NaN     NaN     NaN     NaN     NaN     NaN
    NaN     NaN     NaN     NaN     NaN     NaN     NaN     NaN     NaN     NaN     NaN     NaN     NaN     NaN     NaN     NaN
    NaN     NaN     NaN     NaN     NaN     NaN     NaN     NaN     NaN     NaN     NaN     NaN     NaN     NaN     NaN     NaN
    NaN     NaN     NaN     NaN     NaN     NaN     NaN     NaN     NaN     NaN     NaN     NaN     NaN     NaN     NaN     NaN
    NaN     NaN     NaN     NaN     NaN     NaN     NaN     NaN     NaN     NaN     NaN     NaN     NaN     NaN     NaN     NaN
 total augmentation occupancy for first ion, spin component:           2
    NaN     NaN     NaN     NaN     NaN     NaN     NaN     NaN     NaN     NaN     NaN     NaN     NaN     NaN     NaN     NaN
    NaN     NaN     NaN     NaN     NaN     NaN     NaN     NaN     NaN     NaN     NaN     NaN     NaN     NaN     NaN     NaN
    NaN     NaN     NaN     NaN     NaN     NaN     NaN     NaN     NaN     NaN     NaN     NaN     NaN     NaN     NaN     NaN
    NaN     NaN     NaN     NaN     NaN     NaN     NaN     NaN     NaN     NaN     NaN     NaN     NaN     NaN     NaN     NaN
    NaN     NaN     NaN     NaN     NaN     NaN     NaN     NaN     NaN     NaN     NaN     NaN     NaN     NaN     NaN     NaN
    NaN     NaN     NaN     NaN     NaN     NaN     NaN     NaN     NaN     NaN     NaN     NaN     NaN     NaN     NaN     NaN
    NaN     NaN     NaN     NaN     NaN     NaN     NaN     NaN     NaN     NaN     NaN     NaN     NaN     NaN     NaN     NaN
    NaN     NaN     NaN     NaN     NaN     NaN     NaN     NaN     NaN     NaN     NaN     NaN     NaN     NaN     NaN     NaN
    NaN     NaN     NaN     NaN     NaN     NaN     NaN     NaN     NaN     NaN     NaN     NaN     NaN     NaN     NaN     NaN
    NaN     NaN     NaN     NaN     NaN     NaN     NaN     NaN     NaN     NaN     NaN     NaN     NaN     NaN     NaN     NaN
    NaN     NaN     NaN     NaN     NaN     NaN     NaN     NaN     NaN     NaN     NaN     NaN     NaN     NaN     NaN     NaN
    NaN     NaN     NaN     NaN     NaN     NaN     NaN     NaN     NaN     NaN     NaN     NaN     NaN     NaN     NaN     NaN
    NaN     NaN     NaN     NaN     NaN     NaN     NaN     NaN     NaN     NaN     NaN     NaN     NaN     NaN     NaN     NaN
    NaN     NaN     NaN     NaN     NaN     NaN     NaN     NaN     NaN     NaN     NaN     NaN     NaN     NaN     NaN     NaN
    NaN     NaN     NaN     NaN     NaN     NaN     NaN     NaN     NaN     NaN     NaN     NaN     NaN     NaN     NaN     NaN
    NaN     NaN     NaN     NaN     NaN     NaN     NaN     NaN     NaN     NaN     NaN     NaN     NaN     NaN     NaN     NaN
    NaN     NaN     NaN     NaN     NaN     NaN     NaN     NaN     NaN     NaN     NaN     NaN     NaN     NaN     NaN     NaN
    NaN     NaN     NaN     NaN     NaN     NaN     NaN     NaN     NaN     NaN     NaN     NaN     NaN     NaN     NaN     NaN
 total augmentation occupancy for first ion, spin component:           3
    NaN     NaN     NaN     NaN     NaN     NaN     NaN     NaN     NaN     NaN     NaN     NaN     NaN     NaN     NaN     NaN
    NaN     NaN     NaN     NaN     NaN     NaN     NaN     NaN     NaN     NaN     NaN     NaN     NaN     NaN     NaN     NaN
    NaN     NaN     NaN     NaN     NaN     NaN     NaN     NaN     NaN     NaN     NaN     NaN     NaN     NaN     NaN     NaN
    NaN     NaN     NaN     NaN     NaN     NaN     NaN     NaN     NaN     NaN     NaN     NaN     NaN     NaN     NaN     NaN
    NaN     NaN     NaN     NaN     NaN     NaN     NaN     NaN     NaN     NaN     NaN     NaN     NaN     NaN     NaN     NaN
    NaN     NaN     NaN     NaN     NaN     NaN     NaN     NaN     NaN     NaN     NaN     NaN     NaN     NaN     NaN     NaN
    NaN     NaN     NaN     NaN     NaN     NaN     NaN     NaN     NaN     NaN     NaN     NaN     NaN     NaN     NaN     NaN
    NaN     NaN     NaN     NaN     NaN     NaN     NaN     NaN     NaN     NaN     NaN     NaN     NaN     NaN     NaN     NaN
    NaN     NaN     NaN     NaN     NaN     NaN     NaN     NaN     NaN     NaN     NaN     NaN     NaN     NaN     NaN     NaN
    NaN     NaN     NaN     NaN     NaN     NaN     NaN     NaN     NaN     NaN     NaN     NaN     NaN     NaN     NaN     NaN
    NaN     NaN     NaN     NaN     NaN     NaN     NaN     NaN     NaN     NaN     NaN     NaN     NaN     NaN     NaN     NaN
    NaN     NaN     NaN     NaN     NaN     NaN     NaN     NaN     NaN     NaN     NaN     NaN     NaN     NaN     NaN     NaN
    NaN     NaN     NaN     NaN     NaN     NaN     NaN     NaN     NaN     NaN     NaN     NaN     NaN     NaN     NaN     NaN
    NaN     NaN     NaN     NaN     NaN     NaN     NaN     NaN     NaN     NaN     NaN     NaN     NaN     NaN     NaN     NaN
    NaN     NaN     NaN     NaN     NaN     NaN     NaN     NaN     NaN     NaN     NaN     NaN     NaN     NaN     NaN     NaN
    NaN     NaN     NaN     NaN     NaN     NaN     NaN     NaN     NaN     NaN     NaN     NaN     NaN     NaN     NaN     NaN
    NaN     NaN     NaN     NaN     NaN     NaN     NaN     NaN     NaN     NaN     NaN     NaN     NaN     NaN     NaN     NaN
    NaN     NaN     NaN     NaN     NaN     NaN     NaN     NaN     NaN     NaN     NaN     NaN     NaN     NaN     NaN     NaN
 total augmentation occupancy for first ion, spin component:           4
    NaN     NaN     NaN     NaN     NaN     NaN     NaN     NaN     NaN     NaN     NaN     NaN     NaN     NaN     NaN     NaN
    NaN     NaN     NaN     NaN     NaN     NaN     NaN     NaN     NaN     NaN     NaN     NaN     NaN     NaN     NaN     NaN
    NaN     NaN     NaN     NaN     NaN     NaN     NaN     NaN     NaN     NaN     NaN     NaN     NaN     NaN     NaN     NaN
    NaN     NaN     NaN     NaN     NaN     NaN     NaN     NaN     NaN     NaN     NaN     NaN     NaN     NaN     NaN     NaN
    NaN     NaN     NaN     NaN     NaN     NaN     NaN     NaN     NaN     NaN     NaN     NaN     NaN     NaN     NaN     NaN
    NaN     NaN     NaN     NaN     NaN     NaN     NaN     NaN     NaN     NaN     NaN     NaN     NaN     NaN     NaN     NaN
    NaN     NaN     NaN     NaN     NaN     NaN     NaN     NaN     NaN     NaN     NaN     NaN     NaN     NaN     NaN     NaN
    NaN     NaN     NaN     NaN     NaN     NaN     NaN     NaN     NaN     NaN     NaN     NaN     NaN     NaN     NaN     NaN
    NaN     NaN     NaN     NaN     NaN     NaN     NaN     NaN     NaN     NaN     NaN     NaN     NaN     NaN     NaN     NaN
    NaN     NaN     NaN     NaN     NaN     NaN     NaN     NaN     NaN     NaN     NaN     NaN     NaN     NaN     NaN     NaN
    NaN     NaN     NaN     NaN     NaN     NaN     NaN     NaN     NaN     NaN     NaN     NaN     NaN     NaN     NaN     NaN
    NaN     NaN     NaN     NaN     NaN     NaN     NaN     NaN     NaN     NaN     NaN     NaN     NaN     NaN     NaN     NaN
    NaN     NaN     NaN     NaN     NaN     NaN     NaN     NaN     NaN     NaN     NaN     NaN     NaN     NaN     NaN     NaN
    NaN     NaN     NaN     NaN     NaN     NaN     NaN     NaN     NaN     NaN     NaN     NaN     NaN     NaN     NaN     NaN
    NaN     NaN     NaN     NaN     NaN     NaN     NaN     NaN     NaN     NaN     NaN     NaN     NaN     NaN     NaN     NaN
    NaN     NaN     NaN     NaN     NaN     NaN     NaN     NaN     NaN     NaN     NaN     NaN     NaN     NaN     NaN     NaN
    NaN     NaN     NaN     NaN     NaN     NaN     NaN     NaN     NaN     NaN     NaN     NaN     NaN     NaN     NaN     NaN
    NaN     NaN     NaN     NaN     NaN     NaN     NaN     NaN     NaN     NaN     NaN     NaN     NaN     NaN     NaN     NaN


------------------------ aborting loop because EDIFF is reached ----------------------------------------





 total charge     

# of ion       s       p       d       tot
------------------------------------------
    1          NaN     NaN     NaN     NaN
    2          NaN     NaN     NaN     NaN
    3          NaN     NaN     NaN     NaN
    4          NaN     NaN     NaN     NaN
    5          NaN     NaN     NaN     NaN
    6          NaN     NaN     NaN     NaN
    7          NaN     NaN     NaN     NaN
    8          NaN     NaN     NaN     NaN
    9          NaN     NaN     NaN     NaN
   10          NaN     NaN     NaN     NaN
   11          NaN     NaN     NaN     NaN
   12          NaN     NaN     NaN     NaN
   13          NaN     NaN     NaN     NaN
   14          NaN     NaN     NaN     NaN
   15          NaN     NaN     NaN     NaN
   16          NaN     NaN     NaN     NaN
   17          NaN     NaN     NaN     NaN
   18          NaN     NaN     NaN     NaN
   19          NaN     NaN     NaN     NaN
   20          NaN     NaN     NaN     NaN
   21          NaN     NaN     NaN     NaN
   22          NaN     NaN     NaN     NaN
   23          NaN     NaN     NaN     NaN
   24          NaN     NaN     NaN     NaN
   25          NaN     NaN     NaN     NaN
   26          NaN     NaN     NaN     NaN
   27          NaN     NaN     NaN     NaN
   28          NaN     NaN     NaN     NaN
   29          NaN     NaN     NaN     NaN
   30          NaN     NaN     NaN     NaN
   31          NaN     NaN     NaN     NaN
   32          NaN     NaN     NaN     NaN
   33          NaN     NaN     NaN     NaN
   34          NaN     NaN     NaN     NaN
   35          NaN     NaN     NaN     NaN
   36          NaN     NaN     NaN     NaN
   37          NaN     NaN     NaN     NaN
   38          NaN     NaN     NaN     NaN
   39          NaN     NaN     NaN     NaN
   40          NaN     NaN     NaN     NaN
   41          NaN     NaN     NaN     NaN
   42          NaN     NaN     NaN     NaN
   43          NaN     NaN     NaN     NaN
   44          NaN     NaN     NaN     NaN
   45          NaN     NaN     NaN     NaN
   46          NaN     NaN     NaN     NaN
   47          NaN     NaN     NaN     NaN
   48          NaN     NaN     NaN     NaN
   49          NaN     NaN     NaN     NaN
   50          NaN     NaN     NaN     NaN
   51          NaN     NaN     NaN     NaN
   52          NaN     NaN     NaN     NaN
   53          NaN     NaN     NaN     NaN
   54          NaN     NaN     NaN     NaN
   55          NaN     NaN     NaN     NaN
   56          NaN     NaN     NaN     NaN
   57          NaN     NaN     NaN     NaN
   58          NaN     NaN     NaN     NaN
   59          NaN     NaN     NaN     NaN
   60          NaN     NaN     NaN     NaN
   61          NaN     NaN     NaN     NaN
   62          NaN     NaN     NaN     NaN
   63          NaN     NaN     NaN     NaN
   64          NaN     NaN     NaN     NaN
   65          NaN     NaN     NaN     NaN
--------------------------------------------------
tot            NaN     NaN     NaN     NaN



 magnetization (x)

# of ion       s       p       d       tot
------------------------------------------
    1          NaN     NaN     NaN     NaN
    2          NaN     NaN     NaN     NaN
    3          NaN     NaN     NaN     NaN
    4          NaN     NaN     NaN     NaN
    5          NaN     NaN     NaN     NaN
    6          NaN     NaN     NaN     NaN
    7          NaN     NaN     NaN     NaN
    8          NaN     NaN     NaN     NaN
    9          NaN     NaN     NaN     NaN
   10          NaN     NaN     NaN     NaN
   11          NaN     NaN     NaN     NaN
   12          NaN     NaN     NaN     NaN
   13          NaN     NaN     NaN     NaN
   14          NaN     NaN     NaN     NaN
   15          NaN     NaN     NaN     NaN
   16          NaN     NaN     NaN     NaN
   17          NaN     NaN     NaN     NaN
   18          NaN     NaN     NaN     NaN
   19          NaN     NaN     NaN     NaN
   20          NaN     NaN     NaN     NaN
   21          NaN     NaN     NaN     NaN
   22          NaN     NaN     NaN     NaN
   23          NaN     NaN     NaN     NaN
   24          NaN     NaN     NaN     NaN
   25          NaN     NaN     NaN     NaN
   26          NaN     NaN     NaN     NaN
   27          NaN     NaN     NaN     NaN
   28          NaN     NaN     NaN     NaN
   29          NaN     NaN     NaN     NaN
   30          NaN     NaN     NaN     NaN
   31          NaN     NaN     NaN     NaN
   32          NaN     NaN     NaN     NaN
   33          NaN     NaN     NaN     NaN
   34          NaN     NaN     NaN     NaN
   35          NaN     NaN     NaN     NaN
   36          NaN     NaN     NaN     NaN
   37          NaN     NaN     NaN     NaN
   38          NaN     NaN     NaN     NaN
   39          NaN     NaN     NaN     NaN
   40          NaN     NaN     NaN     NaN
   41          NaN     NaN     NaN     NaN
   42          NaN     NaN     NaN     NaN
   43          NaN     NaN     NaN     NaN
   44          NaN     NaN     NaN     NaN
   45          NaN     NaN     NaN     NaN
   46          NaN     NaN     NaN     NaN
   47          NaN     NaN     NaN     NaN
   48          NaN     NaN     NaN     NaN
   49          NaN     NaN     NaN     NaN
   50          NaN     NaN     NaN     NaN
   51          NaN     NaN     NaN     NaN
   52          NaN     NaN     NaN     NaN
   53          NaN     NaN     NaN     NaN
   54          NaN     NaN     NaN     NaN
   55          NaN     NaN     NaN     NaN
   56          NaN     NaN     NaN     NaN
   57          NaN     NaN     NaN     NaN
   58          NaN     NaN     NaN     NaN
   59          NaN     NaN     NaN     NaN
   60          NaN     NaN     NaN     NaN
   61          NaN     NaN     NaN     NaN
   62          NaN     NaN     NaN     NaN
   63          NaN     NaN     NaN     NaN
   64          NaN     NaN     NaN     NaN
   65          NaN     NaN     NaN     NaN
--------------------------------------------------
tot            NaN     NaN     NaN     NaN



 magnetization (y)

# of ion       s       p       d       tot
------------------------------------------
    1          NaN     NaN     NaN     NaN
    2          NaN     NaN     NaN     NaN
    3          NaN     NaN     NaN     NaN
    4          NaN     NaN     NaN     NaN
    5          NaN     NaN     NaN     NaN
    6          NaN     NaN     NaN     NaN
    7          NaN     NaN     NaN     NaN
    8          NaN     NaN     NaN     NaN
    9          NaN     NaN     NaN     NaN
   10          NaN     NaN     NaN     NaN
   11          NaN     NaN     NaN     NaN
   12          NaN     NaN     NaN     NaN
   13          NaN     NaN     NaN     NaN
   14          NaN     NaN     NaN     NaN
   15          NaN     NaN     NaN     NaN
   16          NaN     NaN     NaN     NaN
   17          NaN     NaN     NaN     NaN
   18          NaN     NaN     NaN     NaN
   19          NaN     NaN     NaN     NaN
   20          NaN     NaN     NaN     NaN
   21          NaN     NaN     NaN     NaN
   22          NaN     NaN     NaN     NaN
   23          NaN     NaN     NaN     NaN
   24          NaN     NaN     NaN     NaN
   25          NaN     NaN     NaN     NaN
   26          NaN     NaN     NaN     NaN
   27          NaN     NaN     NaN     NaN
   28          NaN     NaN     NaN     NaN
   29          NaN     NaN     NaN     NaN
   30          NaN     NaN     NaN     NaN
   31          NaN     NaN     NaN     NaN
   32          NaN     NaN     NaN     NaN
   33          NaN     NaN     NaN     NaN
   34          NaN     NaN     NaN     NaN
   35          NaN     NaN     NaN     NaN
   36          NaN     NaN     NaN     NaN
   37          NaN     NaN     NaN     NaN
   38          NaN     NaN     NaN     NaN
   39          NaN     NaN     NaN     NaN
   40          NaN     NaN     NaN     NaN
   41          NaN     NaN     NaN     NaN
   42          NaN     NaN     NaN     NaN
   43          NaN     NaN     NaN     NaN
   44          NaN     NaN     NaN     NaN
   45          NaN     NaN     NaN     NaN
   46          NaN     NaN     NaN     NaN
   47          NaN     NaN     NaN     NaN
   48          NaN     NaN     NaN     NaN
   49          NaN     NaN     NaN     NaN
   50          NaN     NaN     NaN     NaN
   51          NaN     NaN     NaN     NaN
   52          NaN     NaN     NaN     NaN
   53          NaN     NaN     NaN     NaN
   54          NaN     NaN     NaN     NaN
   55          NaN     NaN     NaN     NaN
   56          NaN     NaN     NaN     NaN
   57          NaN     NaN     NaN     NaN
   58          NaN     NaN     NaN     NaN
   59          NaN     NaN     NaN     NaN
   60          NaN     NaN     NaN     NaN
   61          NaN     NaN     NaN     NaN
   62          NaN     NaN     NaN     NaN
   63          NaN     NaN     NaN     NaN
   64          NaN     NaN     NaN     NaN
   65          NaN     NaN     NaN     NaN
--------------------------------------------------
tot            NaN     NaN     NaN     NaN



 magnetization (z)

# of ion       s       p       d       tot
------------------------------------------
    1          NaN     NaN     NaN     NaN
    2          NaN     NaN     NaN     NaN
    3          NaN     NaN     NaN     NaN
    4          NaN     NaN     NaN     NaN
    5          NaN     NaN     NaN     NaN
    6          NaN     NaN     NaN     NaN
    7          NaN     NaN     NaN     NaN
    8          NaN     NaN     NaN     NaN
    9          NaN     NaN     NaN     NaN
   10          NaN     NaN     NaN     NaN
   11          NaN     NaN     NaN     NaN
