 vasp.5.4.4.18Apr17-6-g9f103f2a35 (build Apr  4 2022 10:17:17) complex           
 executed on        HPECrayEX-GNU date 2022.05.02  16:02:57
 running on  128 total cores
 distrk:  each k-point on   64 cores,    2 groups
 distr:  one band on NCORES_PER_BAND=   8 cores,    8 groups


--------------------------------------------------------------------------------------------------------


 INCAR:
 POTCAR:    PAW_PBE Cd 06Sep2000                  
 POTCAR:    PAW_PBE Te 08Apr2002                  

 ----------------------------------------------------------------------------- 
|                                                                             |
|           W    W    AA    RRRRR   N    N  II  N    N   GGGG   !!!           |
|           W    W   A  A   R    R  NN   N  II  NN   N  G    G  !!!           |
|           W    W  A    A  R    R  N N  N  II  N N  N  G       !!!           |
|           W WW W  AAAAAA  RRRRR   N  N N  II  N  N N  G  GGG   !            |
|           WW  WW  A    A  R   R   N   NN  II  N   NN  G    G                |
|           W    W  A    A  R    R  N    N  II  N    N   GGGG   !!!           |
|                                                                             |
|      You have enabled k-point parallelism (KPAR>1).                         |
|      This developmental code was originally  written by Paul Kent at ORNL,  |
|      and carefully double checked in Vienna.                                |
|      GW as well as linear response parallelism added by Martijn Marsman     |
|      and Georg Kresse.                                                      |
|      Carefully verify results versus KPAR=1.                                |
|      Report problems to Paul Kent and Vienna.                               |
|                                                                             |
 ----------------------------------------------------------------------------- 

 POTCAR:    PAW_PBE Cd 06Sep2000                  
   VRHFIN =Cd : s2 d10                                                          
   LEXCH  = PE                                                                  
   EATOM  =  1293.1815 eV,   95.0462 Ry                                         
                                                                                
   TITEL  = PAW_PBE Cd 06Sep2000                                                
   LULTRA =        F    use ultrasoft PP ?                                      
   IUNSCR =        1    unscreen: 0-lin 1-nonlin 2-no                           
   RPACOR =    2.000    partial core radius                                     
   POMASS =  112.411; ZVAL   =   12.000    mass and valenz                      
   RCORE  =    2.300    outmost cutoff radius                                   
   RWIGS  =    2.980; RWIGS  =    1.577    wigner-seitz radius (au A)           
   ENMAX  =  274.336; ENMIN  =  205.752 eV                                      
   RCLOC  =    2.054    cutoff for local pot                                    
   LCOR   =        T    correct aug charges                                     
   LPAW   =        T    paw PP                                                  
   EAUG   =  456.106                                                            
   DEXC   =    0.000                                                            
   RMAX   =    2.358    core radius for proj-oper                               
   RAUG   =    1.300    factor for augmentation sphere                          
   RDEP   =    2.450    radius for radial grids                                 
   RDEPT  =    1.955    core radius for aug-charge                              
                                                                                
   Atomic configuration                                                         
   12 entries                                                                   
     n  l   j            E        occ.                                          
     1  0  0.50    -26519.7817   2.0000                                         
     2  0  0.50     -3936.9612   2.0000                                         
     2  1  1.50     -3532.2230   6.0000                                         
     3  0  0.50      -733.7908   2.0000                                         
     3  1  1.50      -601.0792   6.0000                                         
     3  2  2.50      -393.5307  10.0000                                         
     4  0  0.50      -105.8977   2.0000                                         
     4  1  1.50       -66.9488   6.0000                                         
     4  2  2.50       -11.7331  10.0000                                         
     5  0  0.50        -5.6592   2.0000                                         
     5  1  0.50        -1.3606   0.0000                                         
     4  3  2.50        -1.3606   0.0000                                         
   Description                                                                  
     l       E           TYP  RCUT    TYP  RCUT                                 
     2    -11.7331479     23  2.300                                             
     2    -13.0937305     23  2.300                                             
     0     -5.6591502     23  2.300                                             
     0     -1.5561433     23  2.300                                             
     1     -2.7211652     23  2.300                                             
     1      8.3548275     23  2.300                                             
  local pseudopotential read in
  partial core-charges read in
  partial kinetic energy density read in
  atomic valenz-charges read in
  non local Contribution for L=           2  read in
    real space projection operators read in
  non local Contribution for L=           2  read in
    real space projection operators read in
  non local Contribution for L=           0  read in
    real space projection operators read in
  non local Contribution for L=           0  read in
    real space projection operators read in
  non local Contribution for L=           1  read in
    real space projection operators read in
  non local Contribution for L=           1  read in
    real space projection operators read in
    PAW grid and wavefunctions read in

   number of l-projection  operators is LMAX  =           6
   number of lm-projection operators is LMMAX =          18

 POTCAR:    PAW_PBE Te 08Apr2002                  
   VRHFIN =Te: s2p4                                                             
   LEXCH  = PE                                                                  
   EATOM  =   223.2721 eV,   16.4100 Ry                                         
                                                                                
   TITEL  = PAW_PBE Te 08Apr2002                                                
   LULTRA =        F    use ultrasoft PP ?                                      
   IUNSCR =        1    unscreen: 0-lin 1-nonlin 2-no                           
   RPACOR =    2.200    partial core radius                                     
   POMASS =  127.600; ZVAL   =    6.000    mass and valenz                      
   RCORE  =    2.300    outmost cutoff radius                                   
   RWIGS  =    2.900; RWIGS  =    1.535    wigner-seitz radius (au A)           
   ENMAX  =  174.982; ENMIN  =  131.236 eV                                      
   ICORE  =        3    local potential                                         
   LCOR   =        T    correct aug charges                                     
   LPAW   =        T    paw PP                                                  
   EAUG   =  368.792                                                            
   DEXC   =    0.000                                                            
   RMAX   =    2.345    core radius for proj-oper                               
   RAUG   =    1.300    factor for augmentation sphere                          
   RDEP   =    2.397    radius for radial grids                                 
   RDEPT  =    2.174    core radius for aug-charge                              
                                                                                
   Atomic configuration                                                         
   13 entries                                                                   
     n  l   j            E        occ.                                          
     1  0  0.50    -31621.2075   2.0000                                         
     2  0  0.50     -4848.7941   2.0000                                         
     2  1  1.50     -4352.1960   6.0000                                         
     3  0  0.50      -964.9612   2.0000                                         
     3  1  1.50      -803.6179   6.0000                                         
     3  2  2.50      -559.8710  10.0000                                         
     4  0  0.50      -164.3522   2.0000                                         
     4  1  1.50      -114.3756   6.0000                                         
     4  2  2.50       -41.6483  10.0000                                         
     5  0  0.50       -15.1072   2.0000                                         
     5  1  0.50        -5.9526   4.0000                                         
     5  2  1.50        -5.4423   0.0000                                         
     4  3  2.50        -5.4423   0.0000                                         
   Description                                                                  
     l       E           TYP  RCUT    TYP  RCUT                                 
     0    -15.1072389     23  2.300                                             
     0    -16.4678215     23  2.300                                             
     1     -5.9526306     23  2.300                                             
     1     -2.4873968     23  2.300                                             
     2     -5.4423304     23  2.300                                             
     3     -1.3605826     23  2.300                                             
  local pseudopotential read in
  partial core-charges read in
  partial kinetic energy density read in
  atomic valenz-charges read in
  non local Contribution for L=           0  read in
    real space projection operators read in
  non local Contribution for L=           0  read in
    real space projection operators read in
  non local Contribution for L=           1  read in
    real space projection operators read in
  non local Contribution for L=           1  read in
    real space projection operators read in
  non local Contribution for L=           2  read in
    real space projection operators read in
    PAW grid and wavefunctions read in

   number of l-projection  operators is LMAX  =           5
   number of lm-projection operators is LMMAX =          13


 ----------------------------------------------------------------------------- 
|                                                                             |
|  ADVICE TO THIS USER RUNNING 'VASP/VAMP'   (HEAR YOUR MASTER'S VOICE ...):  |
|                                                                             |
|      You have a (more or less) 'large supercell' and for larger cells       |
|      it might be more efficient to use real space projection opertators     |
|      So try LREAL= Auto  in the INCAR   file.                               |
|      Mind:          For very  accurate calculation you might also keep the  |
|      reciprocal projection scheme          (i.e. LREAL=.FALSE.)             |
|                                                                             |
 ----------------------------------------------------------------------------- 

  PAW_PBE Cd 06Sep2000                  :
 energy of atom  1       EATOM=-1293.1815
 kinetic energy error for atom=    0.0084 (will be added to EATOM!!)
  PAW_PBE Te 08Apr2002                  :
 energy of atom  2       EATOM= -223.2721
 kinetic energy error for atom=    0.0008 (will be added to EATOM!!)


 POSCAR: Cd33 Te32                               
  positions in direct lattice
  No initial velocities read in
 exchange correlation table for  LEXCH =        8
   RHO(1)=    0.500       N(1)  =     2000
   RHO(2)=  100.500       N(2)  =     4000



--------------------------------------------------------------------------------------------------------


 ion  position               nearest neighbor table
   1  0.004  0.996  0.004-  44 2.79  35 2.93  54 2.93  65 2.93  33 2.94
   2  0.001  0.999  0.497-  55 2.82  34 2.82  64 2.82  45 2.84
   3  0.001  0.503  0.001-  63 2.82  56 2.82  37 2.82  42 2.84
   4  1.000  0.501  0.499-  57 2.82  62 2.82  36 2.82  43 2.84
   5  0.497  0.999  0.001-  39 2.82  50 2.82  61 2.82  48 2.84
   6  0.499  0.000  0.499-  38 2.82  51 2.82  60 2.82  49 2.84
   7  0.499  0.501  1.000-  41 2.82  59 2.82  52 2.82  46 2.84
   8  0.501  0.499  0.501-  47 2.82  40 2.83  53 2.83  58 2.83
   9  0.001  0.251  0.253-  54 2.82  34 2.82  62 2.82  42 2.84
  10  0.004  0.254  0.746-  43 2.79  35 2.93  55 2.93  63 2.93  33 2.94
  11  1.000  0.749  0.251-  56 2.82  64 2.82  36 2.82  44 2.84
  12  0.001  0.747  0.749-  65 2.82  57 2.82  37 2.82  45 2.84
  13  0.499  0.250  0.251-  38 2.82  50 2.82  58 2.82  46 2.84
  14  0.497  0.251  0.749-  39 2.82  51 2.82  59 2.82  47 2.84
  15  0.501  0.751  0.249-  48 2.82  40 2.83  52 2.83  60 2.83
  16  0.499  0.749  0.750-  41 2.82  61 2.82  53 2.82  49 2.84
  17  0.251  0.000  0.251-  34 2.82  50 2.82  60 2.82  44 2.84
  18  0.253  0.999  0.749-  35 2.82  51 2.82  61 2.82  45 2.84
  19  0.249  0.499  0.249-  42 2.82  36 2.83  52 2.83  58 2.83
  20  0.251  0.501  0.750-  37 2.82  59 2.82  53 2.82  43 2.84
  21  0.749  0.999  0.253-  54 2.82  38 2.82  64 2.82  48 2.84
  22  0.746  0.996  0.746-  49 2.79  39 2.93  55 2.93  65 2.93  33 2.94
  23  0.750  0.501  0.251-  56 2.82  62 2.82  40 2.82  46 2.84
  24  0.749  0.503  0.749-  63 2.82  57 2.82  41 2.82  47 2.84
  25  0.253  0.251  0.001-  35 2.82  50 2.82  59 2.82  42 2.84
  26  0.251  0.250  0.499-  34 2.82  51 2.82  58 2.82  43 2.84
  27  0.251  0.749  1.000-  37 2.82  61 2.82  52 2.82  44 2.84
  28  0.249  0.751  0.501-  45 2.82  36 2.83  53 2.83  60 2.83
  29  0.746  0.254  0.004-  46 2.79  39 2.93  54 2.93  63 2.93  33 2.94
  30  0.749  0.251  0.497-  55 2.82  38 2.82  62 2.82  47 2.84
  31  0.749  0.747  0.001-  65 2.82  56 2.82  41 2.82  48 2.84
  32  0.750  0.749  0.499-  57 2.82  64 2.82  40 2.82  49 2.84
  33  0.875  0.125  0.875-   1 2.94  10 2.94  22 2.94  29 2.94  35 3.37  39 3.37  54 3.37  55 3.37
                            63 3.37  65 3.37
  34  0.127  0.125  0.375-  17 2.82  26 2.82   2 2.82   9 2.82
  35  0.133  0.125  0.875-  18 2.82  25 2.82  10 2.93   1 2.93  33 3.37
  36  0.126  0.625  0.375-   4 2.82  11 2.82  19 2.83  28 2.83
  37  0.127  0.625  0.875-  20 2.82  27 2.82   3 2.82  12 2.82
  38  0.623  0.125  0.375-  13 2.82   6 2.82  21 2.82  30 2.82
  39  0.617  0.125  0.875-  14 2.82   5 2.82  22 2.93  29 2.93  33 3.37
  40  0.624  0.625  0.375-  23 2.82  32 2.82   8 2.83  15 2.83
  41  0.623  0.625  0.875-   7 2.82  16 2.82  31 2.82  24 2.82
  42  0.125  0.375  0.125-  19 2.82   9 2.84  25 2.84   3 2.84
  43  0.127  0.377  0.623-  10 2.79   4 2.84  26 2.84  20 2.84
  44  0.127  0.873  0.127-   1 2.79  11 2.84  17 2.84  27 2.84
  45  0.125  0.875  0.625-  28 2.82  18 2.84   2 2.84  12 2.84
  46  0.623  0.377  0.127-  29 2.79  13 2.84  23 2.84   7 2.84
  47  0.625  0.375  0.625-   8 2.82  14 2.84  24 2.84  30 2.84
  48  0.625  0.875  0.125-  15 2.82  21 2.84   5 2.84  31 2.84
  49  0.623  0.873  0.623-  22 2.79  32 2.84   6 2.84  16 2.84
  50  0.375  0.125  0.127-  17 2.82  13 2.82   5 2.82  25 2.82
  51  0.375  0.125  0.623-   6 2.82  26 2.82  18 2.82  14 2.82
  52  0.375  0.625  0.126-   7 2.82  27 2.82  19 2.83  15 2.83
  53  0.375  0.625  0.624-  16 2.82  20 2.82   8 2.83  28 2.83
  54  0.875  0.125  0.133-   9 2.82  21 2.82   1 2.93  29 2.93  33 3.37
  55  0.875  0.125  0.617-  30 2.82   2 2.82  22 2.93  10 2.93  33 3.37
  56  0.875  0.625  0.127-  11 2.82  23 2.82   3 2.82  31 2.82
  57  0.875  0.625  0.623-   4 2.82  32 2.82  12 2.82  24 2.82
  58  0.375  0.376  0.375-  26 2.82  13 2.82  19 2.83   8 2.83
  59  0.375  0.377  0.875-   7 2.82  20 2.82  14 2.82  25 2.82
  60  0.375  0.874  0.375-   6 2.82  17 2.82  15 2.83  28 2.83
  61  0.375  0.873  0.875-  16 2.82  27 2.82   5 2.82  18 2.82
  62  0.875  0.377  0.375-   4 2.82  23 2.82   9 2.82  30 2.82
  63  0.875  0.383  0.875-  24 2.82   3 2.82  10 2.93  29 2.93  33 3.37
  64  0.875  0.873  0.375-  11 2.82  32 2.82   2 2.82  21 2.82
  65  0.875  0.867  0.875-  12 2.82  31 2.82   1 2.93  22 2.93  33 3.37


IMPORTANT INFORMATION: All symmetrisations will be switched off!
NOSYMM: (Re-)initialisation of all symmetry stuff for point group C_1.



 KPOINTS: Automatically generated mesh            
  k-points in reciprocal lattice
Space group operators:
 irot       det(A)        alpha          n_x          n_y          n_z        tau_x        tau_y        tau_z
    1     1.000000     0.000000     1.000000     0.000000     0.000000     0.000000     0.000000     0.000000

 ----------------------------------------------------------------------------- 
|                                                                             |
|           W    W    AA    RRRRR   N    N  II  N    N   GGGG   !!!           |
|           W    W   A  A   R    R  NN   N  II  NN   N  G    G  !!!           |
|           W    W  A    A  R    R  N N  N  II  N N  N  G       !!!           |
|           W WW W  AAAAAA  RRRRR   N  N N  II  N  N N  G  GGG   !            |
|           WW  WW  A    A  R   R   N   NN  II  N   NN  G    G                |
|           W    W  A    A  R    R  N    N  II  N    N   GGGG   !!!           |
|                                                                             |
|      Your generating k-point grid is not commensurate to the symmetry       |
|      of the lattice.  This can cause   slow convergence with respect        |
|      to k-points for HF type calculations                                   |
|      suggested SOLUTIONS:                                                   |
|       ) if not already the case, use automatic k-point generation           |
|       ) shift your grid to Gamma (G) (e.g. required for hex or fcc lattice) |
|                                                                             |
 ----------------------------------------------------------------------------- 

 
 Subroutine IBZKPT_HF returns following result:
 ==============================================
 
 Found      8 k-points in 1st BZ
 the following      8 k-points will be used (e.g. in the exchange kernel)
 Following reciprocal coordinates:   # in IRBZ
  0.000000  0.000000  0.000000    0.12500000   1 t-inv F
  0.500000  0.000000  0.000000    0.12500000   2 t-inv F
  0.000000  0.500000  0.000000    0.12500000   3 t-inv F
  0.500000  0.500000  0.000000    0.12500000   4 t-inv F
  0.000000  0.000000  0.500000    0.12500000   5 t-inv F
  0.500000  0.000000  0.500000    0.12500000   6 t-inv F
  0.000000  0.500000  0.500000    0.12500000   7 t-inv F
  0.500000  0.500000  0.500000    0.12500000   8 t-inv F


--------------------------------------------------------------------------------------------------------




 Dimension of arrays:
   k-points           NKPTS =      8   k-points in BZ     NKDIM =      8   number of bands    NBANDS=    776
   number of dos      NEDOS =   2000   number of ions     NIONS =     65
   non local maximal  LDIM  =      6   non local SUM 2l+1 LMDIM =     18
   total plane-waves  NPLWV = 884736
   max r-space proj   IRMAX =      1   max aug-charges    IRDMAX= 183854
   dimension x,y,z NGX =    96 NGY =   96 NGZ =   96
   dimension x,y,z NGXF=   192 NGYF=  192 NGZF=  192
   support grid    NGXF=   384 NGYF=  384 NGZF=  384
   ions per type =              33  32
   NGX,Y,Z   is equivalent  to a cutoff of  12.20, 12.20, 12.20 a.u.
   NGXF,Y,Z  is equivalent  to a cutoff of  24.39, 24.39, 24.39 a.u.

 SYSTEM =  unknown system                          
 POSCAR =  Cd33 Te32                               

 Startparameter for this run:
   NWRITE =      2    write-flag & timer
   PREC   = accura    normal or accurate (medium, high low for compatibility)
   ISTART =      0    job   : 0-new  1-cont  2-samecut
   ICHARG =      1    charge: 1-file 2-atom 10-const
   ISPIN  =      1    spin polarized calculation?
   LNONCOLLINEAR =      T non collinear calculations
   LSORBIT =      T    spin-orbit coupling
   INIWAV =      1    electr: 0-lowe 1-rand  2-diag
   LASPH  =      T    aspherical Exc in radial PAW
   METAGGA=      F    non-selfconsistent MetaGGA calc.

 Electronic Relaxation 1
   ENCUT  =  450.0 eV  33.07 Ry    5.75 a.u.  22.64 22.64 22.64*2*pi/ulx,y,z
   ENINI  =  450.0     initial cutoff
   ENAUG  =  456.1 eV  augmentation charge cutoff
   NELM   =      6;   NELMIN=  2; NELMDL= -5     # of ELM steps 
   EDIFF  = 0.1E-05   stopping-criterion for ELM
   LREAL  =      F    real-space projection
   NLSPLINE    = F    spline interpolate recip. space projectors
   LCOMPAT=      F    compatible to vasp.4.4
   GGA_COMPAT  = T    GGA compatible to vasp.4.4-vasp.4.6
   LMAXPAW     = -100 max onsite density
   LMAXMIX     =    2 max onsite mixed and CHGCAR
   VOSKOWN=      0    Vosko Wilk Nusair interpolation
   ROPT   =    0.00000   0.00000
 Ionic relaxation
   EDIFFG = -.1E-01   stopping-criterion for IOM
   NSW    =      0    number of steps for IOM
   NBLOCK =      1;   KBLOCK =      1    inner block; outer block 
   IBRION =     -1    ionic relax: 0-MD 1-quasi-New 2-CG
   NFREE  =      0    steps in history (QN), initial steepest desc. (CG)
   ISIF   =      2    stress and relaxation
   IWAVPR =     10    prediction:  0-non 1-charg 2-wave 3-comb
   ISYM   =      0    0-nonsym 1-usesym 2-fastsym
   LCORR  =      T    Harris-Foulkes like correction to forces

   POTIM  = 0.5000    time-step for ionic-motion
   TEIN   =    0.0    initial temperature
   TEBEG  =    0.0;   TEEND  =   0.0 temperature during run
   SMASS  =  -3.00    Nose mass-parameter (am)
   estimated Nose-frequenzy (Omega)   =  0.10E-29 period in steps =****** mass=  -0.391E-26a.u.
   SCALEE = 1.0000    scale energy and forces
   NPACO  =    256;   APACO  = 16.0  distance and # of slots for P.C.
   PSTRESS=    0.0 pullay stress

  Mass of Ions in am
   POMASS = 112.41127.60
  Ionic Valenz
   ZVAL   =  12.00  6.00
  Atomic Wigner-Seitz radii
   RWIGS  =  -1.00 -1.00
  virtual crystal weights 
   VCA    =   1.00  1.00
   NELECT =     588.0000    total number of electrons
   NUPDOWN=      -1.0000    fix difference up-down

 DOS related values:
   EMIN   =  10.00;   EMAX   =-10.00  energy-range for DOS
   EFERMI =   0.00
   ISMEAR =     0;   SIGMA  =   0.05  broadening in eV -4-tet -1-fermi 0-gaus

 Electronic relaxation 2 (details)
   IALGO  =     58    algorithm
   LDIAG  =      T    sub-space diagonalisation (order eigenvalues)
   LSUBROT=      F    optimize rotation matrix (better conditioning)
   TURBO    =      0    0=normal 1=particle mesh
   IRESTART =      0    0=no restart 2=restart with 2 vectors
   NREBOOT  =      0    no. of reboots
   NMIN     =      0    reboot dimension
   EREF     =   0.00    reference energy to select bands
   IMIX   =      4    mixing-type and parameters
     AMIX     =   0.40;   BMIX     =  1.00
     AMIX_MAG =   1.60;   BMIX_MAG =  1.00
     AMIN     =   0.10
     WC   =   100.;   INIMIX=   1;  MIXPRE=   1;  MAXMIX= -45

 Intra band minimization:
   WEIMIN = 0.0000     energy-eigenvalue tresh-hold
   EBREAK =  0.32E-09  absolut break condition
   DEPER  =   0.30     relativ break condition  

   TIME   =   0.40     timestep for ELM

  volume/ion in A,a.u.               =      34.48       232.69
  Fermi-wavevector in a.u.,A,eV,Ry     =   1.048017  1.980464 14.943809  1.098339
  Thomas-Fermi vector in A             =   2.182921

 Write flags
   LWAVE        =      T    write WAVECAR
   LDOWNSAMPLE  =      F    k-point downsampling of WAVECAR
   LCHARG       =      T    write CHGCAR
   LVTOT        =      F    write LOCPOT, total local potential
   LVHAR        =      T    write LOCPOT, Hartree potential only
   LELF         =      F    write electronic localiz. function (ELF)
   LORBIT       =     11    0 simple, 1 ext, 2 COOP (PROOUT), +10 PAW based schemes


 Dipole corrections
   LMONO  =      F    monopole corrections only (constant potential shift)
   LDIPOL =      F    correct potential (dipole corrections)
   IDIPOL =      0    1-x, 2-y, 3-z, 4-all directions 
   EPSILON=  1.0000000 bulk dielectric constant

 Exchange correlation treatment:
   GGA     =    --    GGA type
   LEXCH   =     8    internal setting for exchange type
   VOSKOWN=      0    Vosko Wilk Nusair interpolation
   EXXOEP  =     0    0=HF, 1=EXX-LHF (local Hartree Fock) 2=EXX OEP
   LHFCALC =     T    Hartree Fock is set to
   LSYMGRAD=     F    symmetrize gradient (conserves proper symmetry)
   PRECFOCK=fast      Normal, Fast or Accurate (Low or Medium for compatibility)
   LRHFCALC=     F    long range Hartree Fock
   LRSCOR  =     F    long range correlation only (use DFT for short range part)
   LTHOMAS =     F    Thomas Fermi screening in HF
   LMODELHF=     F    short range full HF, long range fraction AEXX
   ENCUT4O =  -1.0   cutoff for four orbital integrals eV
   LMAXFOCK=     4    L truncation for augmentation on plane wave grid
   LMAXFOCKAE=  -1    L truncation for all-electron charge restoration on plane wave grid
   NMAXFOCKAE=   1    number of basis functions for all-electron charge restoration
   LFOCKAEDFT=     F  apply the AE augmentation even for DFT
   NKREDX  =     1    reduce k-point grid by
   NKREDY  =     1    reduce k-point grid by
   NKREDZ  =     1    reduce k-point grid by
   SHIFTRED=     F    shift reduced grid of Gamma
   HFKIDENT=     F    idential grid for each k-point
   ODDONLY =     F    use only odd q-grid points
   EVENONLY=     F    use only even q-grid points
   HFALPHA =   -1.0000 decay constant for conv. correction
   MCALPHA =    0.0000 extent of test-charge in conv. correction in multipole expansion
   AEXX    =    0.2500 exact exchange contribution
   HFSCREEN=    0.2000 screening length (either q_TF or 0.3 A-1)
   HFSCREENC=   0.2000 screening length for correlation (either q_TF or 0.3 A-1)
   HFRCUT  =    0.0000 spherical cutoff for potential kernel
   ALDAX   =    0.7500 LDA exchange part
   AGGAX   =    0.7500 GGA exchange part
   ALDAC   =    1.0000 LDA correlation
   AGGAC   =    1.0000 GGA correlation
   ENCUTFOCK=  -1.0 apply spherical cutoff to Coloumb kernel
   NBANDSGWLOW=     1    first orbital included in HF term
   NBLOCK_FOCK=    64    blocking factor in FOCK_ACC
 Linear response parameters
   LEPSILON=     F    determine dielectric tensor
   LRPA    =     F    only Hartree local field effects (RPA)
   LNABLA  =     F    use nabla operator in PAW spheres
   LVEL    =     F    velocity operator in full k-point grid
   LINTERFAST=   F  fast interpolation
   KINTER  =     0    interpolate to denser k-point grid
   CSHIFT  =0.1000    complex shift for real part using Kramers Kronig
   OMEGAMAX=  -1.0    maximum frequency
   DEG_THRESHOLD= 0.2000000E-02 threshold for treating states as degnerate
   RTIME   =   -0.100 relaxation time in fs
  (WPLASMAI=    0.000 imaginary part of plasma frequency in eV, 0.658/RTIME)
   DFIELD  = 0.0000000 0.0000000 0.0000000 field for delta impulse in time

 Orbital magnetization related:
   ORBITALMAG=     F  switch on orbital magnetization
   LCHIMAG   =     F  perturbation theory with respect to B field
   DQ        =  0.001000  dq finite difference perturbation B field
   LLRAUG    =     F  two centre corrections for induced B field



--------------------------------------------------------------------------------------------------------


 Static calculation
 charge density and potential will be updated during run
 non collinear spin polarized calculation
 Conjugate gradient for all bands (Freysoldt, et al. PRB 79, 241103 (2009))
 preconditioned conjugated gradient                                        
 perform sub-space diagonalisation
    before iterative eigenvector-optimisation
 modified Broyden-mixing scheme, WC =      100.0
 initial mixing is a Kerker type mixing with AMIX =  0.4000 and BMIX =      1.0000
 Hartree-type preconditioning will be used
 using additional bands          482
 reciprocal scheme for non local part
 use partial core corrections
 no Harris-corrections to forces 
 use gradient corrections 
 use of overlap-Matrix (Vanderbilt PP)
 Gauss-broadening in eV      SIGMA  =   0.05


--------------------------------------------------------------------------------------------------------


  energy-cutoff  :      450.00
  volume of cell :     2241.29
      direct lattice vectors                 reciprocal lattice vectors
    13.086768000  0.000000000  0.000000000     0.076413061  0.000000000  0.000000000
     0.000000000 13.086768000  0.000000000     0.000000000  0.076413061  0.000000000
     0.000000000  0.000000000 13.086768000     0.000000000  0.000000000  0.076413061

  length of vectors
    13.086768000 13.086768000 13.086768000     0.076413061  0.076413061  0.076413061



 k-points in units of 2pi/SCALE and weight: Automatically generated mesh            
   0.00000000  0.00000000  0.00000000       0.125
   0.03820653  0.00000000  0.00000000       0.125
   0.00000000  0.03820653  0.00000000       0.125
   0.03820653  0.03820653  0.00000000       0.125
   0.00000000  0.00000000  0.03820653       0.125
   0.03820653  0.00000000  0.03820653       0.125
   0.00000000  0.03820653  0.03820653       0.125
   0.03820653  0.03820653  0.03820653       0.125

 k-points in reciprocal lattice and weights: Automatically generated mesh            
   0.00000000  0.00000000  0.00000000       0.125
   0.50000000  0.00000000  0.00000000       0.125
   0.00000000  0.50000000  0.00000000       0.125
   0.50000000  0.50000000  0.00000000       0.125
   0.00000000  0.00000000  0.50000000       0.125
   0.50000000  0.00000000  0.50000000       0.125
   0.00000000  0.50000000  0.50000000       0.125
   0.50000000  0.50000000  0.50000000       0.125

 position of ions in fractional coordinates (direct lattice) 
   0.00448500  0.99551500  0.00448500
   0.00124700  0.99875300  0.49695900
   0.00124700  0.50304100  0.00124700
   0.99962500  0.50121800  0.49878200
   0.49695900  0.99875300  0.00124700
   0.49878100  0.00037500  0.49878100
   0.49878100  0.50121900  0.99962500
   0.50052800  0.49947200  0.50052800
   0.00124700  0.25124700  0.25304000
   0.00448600  0.25448500  0.74551500
   0.99962500  0.74878200  0.25121800
   0.00124700  0.74695900  0.74875300
   0.49878200  0.24962500  0.25121900
   0.49696000  0.25124700  0.74875300
   0.50052800  0.75052800  0.24947200
   0.49878100  0.74878100  0.75037500
   0.25121900  0.00037500  0.25121900
   0.25304000  0.99875300  0.74875300
   0.24947200  0.49947200  0.24947200
   0.25121900  0.50121900  0.75037500
   0.74875300  0.99875300  0.25304000
   0.74551400  0.99551500  0.74551500
   0.75037500  0.50121900  0.25121900
   0.74875300  0.50304000  0.74875300
   0.25304000  0.25124700  0.00124700
   0.25121900  0.24962500  0.49878100
   0.25121900  0.74878100  0.99962500
   0.24947200  0.75052800  0.50052800
   0.74551400  0.25448500  0.00448500
   0.74875300  0.25124700  0.49696000
   0.74875300  0.74695900  0.00124700
   0.75037500  0.74878200  0.49878200
   0.87500000  0.12500000  0.87500000
   0.12665600  0.12500000  0.37500000
   0.13277900  0.12500000  0.87500000
   0.12589200  0.62500000  0.37500000
   0.12665600  0.62500000  0.87500000
   0.62334400  0.12500000  0.37500000
   0.61722100  0.12500000  0.87500000
   0.62410800  0.62500000  0.37500000
   0.62334400  0.62500000  0.87500000
   0.12484800  0.37484800  0.12484800
   0.12748800  0.37748800  0.62251200
   0.12748800  0.87251200  0.12748800
   0.12484800  0.87515200  0.62515200
   0.62251200  0.37748800  0.12748800
   0.62515200  0.37484800  0.62515200
   0.62515200  0.87515200  0.12484800
   0.62251200  0.87251200  0.62251200
   0.37500000  0.12500000  0.12665600
   0.37500000  0.12500000  0.62334400
   0.37500000  0.62500000  0.12589200
   0.37500000  0.62500000  0.62410800
   0.87500000  0.12500000  0.13277900
   0.87500000  0.12500000  0.61722100
   0.87500000  0.62500000  0.12665600
   0.87500000  0.62500000  0.62334400
   0.37500000  0.37589200  0.37500000
   0.37500000  0.37665600  0.87500000
   0.37500000  0.87410800  0.37500000
   0.37500000  0.87334400  0.87500000
   0.87500000  0.37665600  0.37500000
   0.87500000  0.38277900  0.87500000
   0.87500000  0.87334400  0.37500000
   0.87500000  0.86722100  0.87500000

 position of ions in cartesian coordinates  (Angst):
   0.05869415 13.02807385  0.05869415
   0.01631920 13.07044880  6.50358714
   0.01631920  6.58318086  0.01631920
  13.08186046  6.55932368  6.52744432
   6.50358714 13.07044880  0.01631920
   6.52743123  0.00490754  6.52743123
   6.52743123  6.55933677 13.08186046
   6.55029381  6.53647419  6.55029381
   0.01631920  3.28801120  3.31147577
   0.05870724  3.33038615  9.75638185
  13.08186046  9.79913632  3.28763168
   0.01631920  9.77527914  9.79875680
   6.52744432  3.26678446  3.28764477
   6.50360023  3.28801120  9.79875680
   6.55029381  9.82198581  3.26478219
   6.52743123  9.79912323  9.81998354
   3.28764477  0.00490754  3.28764477
   3.31147577 13.07044880  9.79875680
   3.26478219  6.53647419  3.26478219
   3.28764477  6.55933677  9.81998354
   9.79875680 13.07044880  3.31147577
   9.75636876 13.02807385  9.75638185
   9.81998354  6.55933677  3.28764477
   9.79875680  6.58316777  9.79875680
   3.31147577  3.28801120  0.01631920
   3.28764477  3.26678446  6.52743123
   3.28764477  9.79912323 13.08186046
   3.26478219  9.82198581  6.55029381
   9.75636876  3.33038615  0.05869415
   9.79875680  3.28801120  6.50360023
   9.79875680  9.77527914  0.01631920
   9.81998354  9.79913632  6.52744432
  11.45092200  1.63584600 11.45092200
   1.65751769  1.63584600  4.90753800
   1.73764797  1.63584600 11.45092200
   1.64751940  8.17923000  4.90753800
   1.65751769  8.17923000 11.45092200
   8.15755831  1.63584600  4.90753800
   8.07742803  1.63584600 11.45092200
   8.16755660  8.17923000  4.90753800
   8.15755831  8.17923000 11.45092200
   1.63385681  4.90554881  1.63385681
   1.66840588  4.94009788  8.14667012
   1.66840588 11.41836212  1.66840588
   1.63385681 11.45291119  8.18121919
   8.14667012  4.94009788  1.66840588
   8.18121919  4.90554881  8.18121919
   8.18121919 11.45291119  1.63385681
   8.14667012 11.41836212  8.14667012
   4.90753800  1.63584600  1.65751769
   4.90753800  1.63584600  8.15755831
   4.90753800  8.17923000  1.64751940
   4.90753800  8.17923000  8.16755660
  11.45092200  1.63584600  1.73764797
  11.45092200  1.63584600  8.07742803
  11.45092200  8.17923000  1.65751769
  11.45092200  8.17923000  8.15755831
   4.90753800  4.91921140  4.90753800
   4.90753800  4.92920969 11.45092200
   4.90753800 11.43924860  4.90753800
   4.90753800 11.42925031 11.45092200
  11.45092200  4.92920969  4.90753800
  11.45092200  5.00933997 11.45092200
  11.45092200 11.42925031  4.90753800
  11.45092200 11.34912003 11.45092200

 Euler angles ALPHA=     0.0000000  BETA=     0.0000000

 transformation matrix from SAXIS to cartesian coordinates
 ---------------------------------------------------------
     1.0000000 m_x    -0.0000000 m_y     0.0000000 m_z
     0.0000000 m_x     1.0000000 m_y     0.0000000 m_z
    -0.0000000 m_x     0.0000000 m_y     1.0000000 m_z

 transformation matrix from cartesian coordinates to SAXIS
 ---------------------------------------------------------
     1.0000000 m_x     0.0000000 m_y    -0.0000000 m_z
    -0.0000000 m_x     1.0000000 m_y     0.0000000 m_z
     0.0000000 m_x     0.0000000 m_y     1.0000000 m_z




--------------------------------------------------------------------------------------------------------


 k-point  1 :   0.0000 0.0000 0.0000  plane waves:   97002
 k-point  2 :   0.5000 0.0000 0.0000  plane waves:   97356
 k-point  3 :   0.0000 0.5000 0.0000  plane waves:   97356
 k-point  4 :   0.5000 0.5000 0.0000  plane waves:   96960
 k-point  5 :   0.0000 0.0000 0.5000  plane waves:   97356
 k-point  6 :   0.5000 0.0000 0.5000  plane waves:   96960
 k-point  7 :   0.0000 0.5000 0.5000  plane waves:   96960
 k-point  8 :   0.5000 0.5000 0.5000  plane waves:   96832

 maximum and minimum number of plane-waves per node :     12212    12064

 maximum number of plane-waves:     97356
 maximum index in each direction: 
   IXMAX=   22   IYMAX=   22   IZMAX=   22
   IXMIN=  -23   IYMIN=  -23   IZMIN=  -23


 parallel 3D FFT for wavefunctions:
    minimum data exchange during FFTs selected (reduces bandwidth)
 parallel 3D FFT for charge:
    minimum data exchange during FFTs selected (reduces bandwidth)


 FFT grid for exact exchange (Hartree Fock) 
  NGX = 48; NGY = 48; NGZ = 48


 Radii for the augmentation spheres in the non-local exchange
 for species   1 augmentation radius   1.444 (default was   1.070)
       energy cutoff for augmentation   1800.0
 for species   2 augmentation radius   1.606 (default was   1.190)
       energy cutoff for augmentation   1800.0

 real space projection operators:
  total allocation   :       9375.20 KBytes
  max/ min on nodes  :       1191.99       1140.62

 Maximum index for augmentation-charges in exchange          106
  SETUP_FOCK is finished

 total amount of memory used by VASP MPI-rank0   595791. kBytes
=======================================================================

   base      :      30000. kBytes
   nonl-proj :      20385. kBytes
   fftplans  :      36779. kBytes
   grid      :      40697. kBytes
   one-center:        559. kBytes
   HF        :        129. kBytes
   nonlr-proj:       2389. kBytes
   wavefun   :     464853. kBytes

     INWAV:  cpu time    0.0001: real time    0.0001
 Broyden mixing: mesh for mixing (old mesh)
   NGX = 45   NGY = 45   NGZ = 45
  (NGX  =192   NGY  =192   NGZ  =192)
  gives a total of  91125 points

 initial charge density was supplied:
 charge density of overlapping atoms calculated
 number of electron     588.0000000 magnetization      65.0000000     65.0000000     65.0000000
 keeping initial charge density in first step


--------------------------------------------------------------------------------------------------------


 Maximum index for augmentation-charges         3305 (set IRDMAX)


--------------------------------------------------------------------------------------------------------


 First call to EWALD:  gamma=   0.135
 Maximum number of real-space cells 3x 3x 3
 Maximum number of reciprocal cells 3x 3x 3

    FEWALD:  cpu time    0.0194: real time    0.0218


--------------------------------------- Iteration      1(   1)  ---------------------------------------


    POTLOK:  cpu time    0.6384: real time    0.6383
    SETDIJ:  cpu time    1.6264: real time    1.6283
    TRIAL :  cpu time   37.2905: real time   37.3783
    CORREC:  cpu time    0.0019: real time    0.0019
    --------------------------------------------
      LOOP:  cpu time   39.7205: real time   39.8102

 eigenvalue-minimisations  : 12424
 total energy-change (2. order) : 0.4615607E+04  (-0.2533141E+05)
 number of electron     588.0000000 magnetization      65.0000000     65.0000000     65.0000000
 augmentation part      588.0000000 magnetization      65.0000000     65.0000000     65.0000000

 Free energy of the ion-electron system (eV)
  ---------------------------------------------------
  alpha Z        PSCENC =      1642.45118531
  Ewald energy   TEWEN  =    -33940.17512420
  -Hartree energ DENC   =    -17077.89199325
  -exchange      EXHF   =         0.00000000
  -V(xc)+E(xc)   XCENC  =      -617.56595420
  PAW double counting   =     46020.13618675   -43994.38451620
  entropy T*S    EENTRO =        -0.02937023
  eigenvalues    EBANDS =      2833.64074066
  atomic energy  EATOM  =     49749.42546356
  ---------------------------------------------------
  free energy    TOTEN  =      4615.60661822 eV

  energy without entropy =     4615.63598845  energy(sigma->0) =     4615.62130333
  exchange ACFDT corr.  =         0.00000000  see jH, gK, PRB 81, 115126


--------------------------------------------------------------------------------------------------------




--------------------------------------- Iteration      1(   2)  ---------------------------------------


    TRIAL :  cpu time   39.5994: real time   39.5747
    CORREC:  cpu time    0.0022: real time    0.0022
    --------------------------------------------
      LOOP:  cpu time   39.6075: real time   39.5914

 eigenvalue-minimisations  : 13536
 total energy-change (2. order) :-0.3433758E+04  (-0.3271502E+04)
 number of electron     588.0000000 magnetization      65.0000000     65.0000000     65.0000000
 augmentation part      588.0000000 magnetization      65.0000000     65.0000000     65.0000000

 Free energy of the ion-electron system (eV)
  ---------------------------------------------------
  alpha Z        PSCENC =      1642.45118531
  Ewald energy   TEWEN  =    -33940.17512420
  -Hartree energ DENC   =    -17077.89199325
  -exchange      EXHF   =         0.00000000
  -V(xc)+E(xc)   XCENC  =      -617.56595420
  PAW double counting   =     46020.13618675   -43994.38451620
  entropy T*S    EENTRO =        -0.01070254
  eigenvalues    EBANDS =      -600.13615832
  atomic energy  EATOM  =     49749.42546356
  ---------------------------------------------------
  free energy    TOTEN  =      1181.84838692 eV

  energy without entropy =     1181.85908946  energy(sigma->0) =     1181.85373819
  exchange ACFDT corr.  =         0.00000000  see jH, gK, PRB 81, 115126


--------------------------------------------------------------------------------------------------------




--------------------------------------- Iteration      1(   3)  ---------------------------------------


    TRIAL :  cpu time   41.0853: real time   41.0594
    CORREC:  cpu time    0.0032: real time    0.0032
    --------------------------------------------
      LOOP:  cpu time   41.0927: real time   41.0769

 eigenvalue-minimisations  : 14200
 total energy-change (2. order) :-0.2346437E+03  (-0.2318685E+03)
 number of electron     588.0000000 magnetization      65.0000000     65.0000000     65.0000000
 augmentation part      588.0000000 magnetization      65.0000000     65.0000000     65.0000000

 Free energy of the ion-electron system (eV)
  ---------------------------------------------------
  alpha Z        PSCENC =      1642.45118531
  Ewald energy   TEWEN  =    -33940.17512420
  -Hartree energ DENC   =    -17077.89199325
  -exchange      EXHF   =         0.00000000
  -V(xc)+E(xc)   XCENC  =      -617.56595420
  PAW double counting   =     46020.13618675   -43994.38451620
  entropy T*S    EENTRO =        -0.01253654
  eigenvalues    EBANDS =      -834.77801290
  atomic energy  EATOM  =     49749.42546356
  ---------------------------------------------------
  free energy    TOTEN  =       947.20469835 eV

  energy without entropy =      947.21723488  energy(sigma->0) =      947.21096661
  exchange ACFDT corr.  =         0.00000000  see jH, gK, PRB 81, 115126


--------------------------------------------------------------------------------------------------------




--------------------------------------- Iteration      1(   4)  ---------------------------------------


    TRIAL :  cpu time   41.4000: real time   41.3805
    CORREC:  cpu time    0.0031: real time    0.0031
    --------------------------------------------
      LOOP:  cpu time   41.4213: real time   41.4113

 eigenvalue-minimisations  : 14368
 total energy-change (2. order) :-0.5507668E+01  (-0.5492019E+01)
 number of electron     588.0000000 magnetization      65.0000000     65.0000000     65.0000000
 augmentation part      588.0000000 magnetization      65.0000000     65.0000000     65.0000000

 Free energy of the ion-electron system (eV)
  ---------------------------------------------------
  alpha Z        PSCENC =      1642.45118531
  Ewald energy   TEWEN  =    -33940.17512420
  -Hartree energ DENC   =    -17077.89199325
  -exchange      EXHF   =         0.00000000
  -V(xc)+E(xc)   XCENC  =      -617.56595420
  PAW double counting   =     46020.13618675   -43994.38451620
  entropy T*S    EENTRO =        -0.01278113
  eigenvalues    EBANDS =      -840.28543645
  atomic energy  EATOM  =     49749.42546356
  ---------------------------------------------------
  free energy    TOTEN  =       941.69703021 eV

  energy without entropy =      941.70981133  energy(sigma->0) =      941.70342077
  exchange ACFDT corr.  =         0.00000000  see jH, gK, PRB 81, 115126


--------------------------------------------------------------------------------------------------------




--------------------------------------- Iteration      1(   5)  ---------------------------------------


    TRIAL :  cpu time   43.2127: real time   43.1923
    CORREC:  cpu time    0.0024: real time    0.0024
    CHARGE:  cpu time    1.9974: real time    2.0092
    --------------------------------------------
      LOOP:  cpu time   45.2262: real time   45.2272

 eigenvalue-minimisations  : 15248
 total energy-change (2. order) :-0.1068601E+00  (-0.1066630E+00)
 number of electron     588.0000006 magnetization       0.6809504      0.6809391      0.6809448
 augmentation part      145.5204623 magnetization       0.5824193      0.5823679      0.5823643

 Free energy of the ion-electron system (eV)
  ---------------------------------------------------
  alpha Z        PSCENC =      1642.45118531
  Ewald energy   TEWEN  =    -33940.17512420
  -Hartree energ DENC   =    -17077.89199325
  -exchange      EXHF   =         0.00000000
  -V(xc)+E(xc)   XCENC  =      -617.56595420
  PAW double counting   =     46020.13618675   -43994.38451620
  entropy T*S    EENTRO =        -0.01278113
  eigenvalues    EBANDS =      -840.39229655
  atomic energy  EATOM  =     49749.42546356
  ---------------------------------------------------
  free energy    TOTEN  =       941.59017010 eV

  energy without entropy =      941.60295123  energy(sigma->0) =      941.59656067
  exchange ACFDT corr.  =         0.00000000  see jH, gK, PRB 81, 115126


--------------------------------------------------------------------------------------------------------




--------------------------------------- Iteration      1(   6)  ---------------------------------------


    POTLOK:  cpu time    0.6235: real time    0.6230
    SETDIJ:  cpu time    1.6211: real time    1.6202
    TRIAL :  cpu time 2224.8905: real time 2224.0171
    CORREC:  cpu time 2193.2803: real time 2192.0902
    EDDIAG:  cpu time 2205.1377: real time 2204.0613
    CHARGE:  cpu time    1.9875: real time    1.9869
    --------------------------------------------
      LOOP:  cpu time 6627.5724: real time 6624.4380

 eigenvalue-minimisations  :     0
 total energy-change (2. order) :-0.1090199E+04  (-0.4346929E+02)
 number of electron     588.0000006 magnetization       0.1812704      0.1813153      0.1812281
 augmentation part      154.0056791 magnetization       0.3721510      0.3714844      0.3722380

 Free energy of the ion-electron system (eV)
  ---------------------------------------------------
  alpha Z        PSCENC =      1642.45118531
  Ewald energy   TEWEN  =    -33940.17512420
  -Hartree energ DENC   =    -15675.28455106
  -exchange      EXHF   =      1132.38369919
  -V(xc)+E(xc)   XCENC  =      -655.55198348
  PAW double counting   =    120160.65711404  -118072.27438071
  entropy T*S    EENTRO =        -0.00822231
  eigenvalues    EBANDS =     -4462.95356584
  atomic energy  EATOM  =     49749.42546356
  ---------------------------------------------------
  free energy    TOTEN  =      -148.60919909 eV

  energy without entropy =     -148.60097678  energy(sigma->0) =     -148.60508794
  exchange ACFDT corr.  =        -0.01688181  see jH, gK, PRB 81, 115126


--------------------------------------------------------------------------------------------------------


  average scaling for gradient   0.9538


 average (electrostatic) potential at core
  the test charge radii are     1.0698  1.1897
  (the norm of the test charge is              1.0000)
       1 -31.1966       2 -31.4716       3 -31.4683       4 -31.6643       5 -31.4680
       6 -31.6636       7 -31.6657       8 -31.7506       9 -31.4693      10 -31.1989
      11 -31.6663      12 -31.4702      13 -31.6644      14 -31.4704      15 -31.7510
      16 -31.6653      17 -31.6657      18 -31.4684      19 -31.7501      20 -31.6652
      21 -31.4697      22 -31.1942      23 -31.6654      24 -31.4683      25 -31.4698
      26 -31.6653      27 -31.6655      28 -31.7509      29 -31.1957      30 -31.4683
      31 -31.4696      32 -31.6653      33 -29.6990      34 -88.0930      35 -87.6268
      36 -88.2431      37 -88.0930      38 -88.0933      39 -87.6278      40 -88.2438
      41 -88.0928      42 -88.0239      43 -88.1645      44 -88.1647      45 -88.0238
      46 -88.1654      47 -88.0248      48 -88.0245      49 -88.1646      50 -88.0935
      51 -88.0936      52 -88.2436      53 -88.2434      54 -87.6282      55 -87.6277
      56 -88.0932      57 -88.0931      58 -88.2439      59 -88.0929      60 -88.2431
      61 -88.0931      62 -88.0938      63 -87.6268      64 -88.0932      65 -87.6279



 E-fermi :   4.8554     XC(G=0):  -7.3038     alpha+bet : -7.2837


 k-point     1 :       0.0000    0.0000    0.0000
  band No.  band energies     occupation 
      1     -10.6503      1.00000
      2     -10.6151      1.00000
      3     -10.3821      1.00000
      4     -10.3816      1.00000
      5     -10.3814      1.00000
      6     -10.3705      1.00000
      7     -10.3704      1.00000
      8     -10.3431      1.00000
      9     -10.3424      1.00000
     10     -10.3419      1.00000
     11     -10.3417      1.00000
     12     -10.3312      1.00000
     13     -10.3311      1.00000
     14     -10.3032      1.00000
     15     -10.2743      1.00000
     16     -10.2736      1.00000
     17     -10.2731      1.00000
     18     -10.2334      1.00000
     19     -10.2326      1.00000
     20     -10.2320      1.00000
     21     -10.2094      1.00000
     22     -10.2093      1.00000
     23     -10.2020      1.00000
     24     -10.2016      1.00000
     25     -10.2013      1.00000
     26     -10.1961      1.00000
     27     -10.1861      1.00000
     28     -10.1852      1.00000
     29     -10.1850      1.00000
     30     -10.1677      1.00000
     31     -10.1676      1.00000
     32     -10.1606      1.00000
     33     -10.1600      1.00000
     34     -10.1595      1.00000
     35     -10.1536      1.00000
     36     -10.1434      1.00000
     37     -10.1433      1.00000
     38     -10.1429      1.00000
     39     -10.1094      1.00000
     40     -10.1093      1.00000
     41     -10.0677      1.00000
     42     -10.0673      1.00000
     43     -10.0643      1.00000
     44     -10.0638      1.00000
     45     -10.0605      1.00000
     46     -10.0571      1.00000
     47     -10.0494      1.00000
     48     -10.0219      1.00000
     49     -10.0198      1.00000
     50     -10.0189      1.00000
     51     -10.0135      1.00000
     52     -10.0069      1.00000
     53      -9.8324      1.00000
     54      -9.7838      1.00000
     55      -9.7350      1.00000
     56      -9.7346      1.00000
     57      -9.7343      1.00000
     58      -9.6879      1.00000
     59      -9.6878      1.00000
     60      -9.6839      1.00000
     61      -9.6826      1.00000
     62      -9.6824      1.00000
     63      -9.6349      1.00000
     64      -9.6346      1.00000
     65      -7.4984      1.00000
     66      -7.4982      1.00000
     67      -7.4973      1.00000
     68      -7.4970      1.00000
     69      -7.4926      1.00000
     70      -7.4913      1.00000
     71      -7.4907      1.00000
     72      -7.4896      1.00000
     73      -7.4581      1.00000
     74      -7.4569      1.00000
     75      -7.4552      1.00000
     76      -7.4538      1.00000
     77      -7.4495      1.00000
     78      -7.4467      1.00000
     79      -7.4384      1.00000
     80      -7.4347      1.00000
     81      -7.4339      1.00000
     82      -7.4335      1.00000
     83      -7.4314      1.00000
     84      -7.4307      1.00000
     85      -7.4168      1.00000
     86      -7.4160      1.00000
     87      -7.4035      1.00000
     88      -7.4028      1.00000
     89      -7.4025      1.00000
     90      -7.4016      1.00000
     91      -7.3981      1.00000
     92      -7.3978      1.00000
     93      -7.3971      1.00000
     94      -7.3963      1.00000
     95      -7.3951      1.00000
     96      -7.3944      1.00000
     97      -7.3904      1.00000
     98      -7.3894      1.00000
     99      -7.3714      1.00000
    100      -7.3697      1.00000
    101      -7.3693      1.00000
    102      -7.3693      1.00000
    103      -7.3666      1.00000
    104      -7.3660      1.00000
    105      -7.3644      1.00000
    106      -7.3641      1.00000
    107      -7.3641      1.00000
    108      -7.3640      1.00000
    109      -7.3295      1.00000
    110      -7.3292      1.00000
    111      -7.3277      1.00000
    112      -7.3275      1.00000
    113      -7.3120      1.00000
    114      -7.3099      1.00000
    115      -7.3001      1.00000
    116      -7.2994      1.00000
    117      -7.2984      1.00000
    118      -7.2976      1.00000
    119      -7.2919      1.00000
    120      -7.2900      1.00000
    121      -7.2674      1.00000
    122      -7.2656      1.00000
    123      -7.2552      1.00000
    124      -7.2514      1.00000
    125      -7.2362      1.00000
    126      -7.2359      1.00000
    127      -7.2338      1.00000
    128      -7.2334      1.00000
    129      -7.2079      1.00000
    130      -7.2076      1.00000
    131      -7.2062      1.00000
    132      -7.2054      1.00000
    133      -7.2051      1.00000
    134      -7.2045      1.00000
    135      -7.2037      1.00000
    136      -7.2032      1.00000
    137      -7.2027      1.00000
    138      -7.2020      1.00000
    139      -7.1941      1.00000
    140      -7.1925      1.00000
    141      -7.1924      1.00000
    142      -7.1913      1.00000
    143      -7.1824      1.00000
    144      -7.1822      1.00000
    145      -7.1820      1.00000
    146      -7.1818      1.00000
    147      -7.1601      1.00000
    148      -7.1600      1.00000
    149      -7.1574      1.00000
    150      -7.1573      1.00000
    151      -7.1478      1.00000
    152      -7.1474      1.00000
    153      -7.1469      1.00000
    154      -7.1466      1.00000
    155      -7.1296      1.00000
    156      -7.1281      1.00000
    157      -7.1129      1.00000
    158      -7.1104      1.00000
    159      -7.0904      1.00000
    160      -7.0889      1.00000
    161      -7.0886      1.00000
    162      -7.0874      1.00000
    163      -7.0404      1.00000
    164      -7.0401      1.00000
    165      -7.0396      1.00000
    166      -7.0389      1.00000
    167      -7.0386      1.00000
    168      -7.0375      1.00000
    169      -7.0159      1.00000
    170      -7.0143      1.00000
    171      -7.0039      1.00000
    172      -7.0036      1.00000
    173      -7.0033      1.00000
    174      -7.0030      1.00000
    175      -6.9750      1.00000
    176      -6.9745      1.00000
    177      -6.9312      1.00000
    178      -6.9291      1.00000
    179      -6.9265      1.00000
    180      -6.9255      1.00000
    181      -6.9248      1.00000
    182      -6.9154      1.00000
    183      -6.9062      1.00000
    184      -6.9030      1.00000
    185      -6.8835      1.00000
    186      -6.8830      1.00000
    187      -6.8820      1.00000
    188      -6.8807      1.00000
    189      -6.8745      1.00000
    190      -6.8718      1.00000
    191      -6.8469      1.00000
    192      -6.8440      1.00000
    193      -6.8233      1.00000
    194      -6.8231      1.00000
    195      -6.8209      1.00000
    196      -6.8208      1.00000
    197      -6.8068      1.00000
    198      -6.8038      1.00000
    199      -6.8007      1.00000
    200      -6.8002      1.00000
    201      -6.7972      1.00000
    202      -6.7968      1.00000
    203      -6.7812      1.00000
    204      -6.7808      1.00000
    205      -6.7804      1.00000
    206      -6.7803      1.00000
    207      -6.7742      1.00000
    208      -6.7741      1.00000
    209      -6.7731      1.00000
    210      -6.7723      1.00000
    211      -6.7552      1.00000
    212      -6.7531      1.00000
    213      -6.7442      1.00000
    214      -6.7433      1.00000
    215      -6.7409      1.00000
    216      -6.7403      1.00000
    217      -6.7399      1.00000
    218      -6.7396      1.00000
    219      -6.7352      1.00000
    220      -6.7332      1.00000
    221      -6.7275      1.00000
    222      -6.7273      1.00000
    223      -6.7271      1.00000
    224      -6.7269      1.00000
    225      -6.7140      1.00000
    226      -6.7136      1.00000
    227      -6.7127      1.00000
    228      -6.7120      1.00000
    229      -6.7090      1.00000
    230      -6.7088      1.00000
    231      -6.7082      1.00000
    232      -6.7079      1.00000
    233      -6.7078      1.00000
    234      -6.7073      1.00000
    235      -6.6895      1.00000
    236      -6.6888      1.00000
    237      -6.6867      1.00000
    238      -6.6862      1.00000
    239      -6.6859      1.00000
    240      -6.6839      1.00000
    241      -6.6784      1.00000
    242      -6.6780      1.00000
    243      -6.6768      1.00000
    244      -6.6764      1.00000
    245      -6.6742      1.00000
    246      -6.6734      1.00000
    247      -6.6613      1.00000
    248      -6.6594      1.00000
    249      -6.6465      1.00000
    250      -6.6463      1.00000
    251      -6.6454      1.00000
    252      -6.6450      1.00000
    253      -6.6378      1.00000
    254      -6.6365      1.00000
    255      -6.6258      1.00000
    256      -6.6255      1.00000
    257      -6.6244      1.00000
    258      -6.6240      1.00000
    259      -6.6210      1.00000
    260      -6.6202      1.00000
    261      -6.6141      1.00000
    262      -6.6138      1.00000
    263      -6.6135      1.00000
    264      -6.6131      1.00000
    265      -6.5939      1.00000
    266      -6.5935      1.00000
    267      -6.5925      1.00000
    268      -6.5917      1.00000
    269      -6.5887      1.00000
    270      -6.5851      1.00000
    271      -6.5767      1.00000
    272      -6.5753      1.00000
    273      -6.5721      1.00000
    274      -6.5717      1.00000
    275      -6.5714      1.00000
    276      -6.5712      1.00000
    277      -6.5528      1.00000
    278      -6.5516      1.00000
    279      -6.5508      1.00000
    280      -6.5496      1.00000
    281      -6.5346      1.00000
    282      -6.5342      1.00000
    283      -6.5341      1.00000
    284      -6.5337      1.00000
    285      -6.5334      1.00000
    286      -6.5316      1.00000
    287      -6.5314      1.00000
    288      -6.5291      1.00000
    289      -6.5023      1.00000
    290      -6.5014      1.00000
    291      -6.4998      1.00000
    292      -6.4992      1.00000
    293      -6.4915      1.00000
    294      -6.4908      1.00000
    295      -6.4882      1.00000
    296      -6.4862      1.00000
    297      -6.4856      1.00000
    298      -6.4850      1.00000
    299      -6.4838      1.00000
    300      -6.4835      1.00000
    301      -6.4726      1.00000
    302      -6.4694      1.00000
    303      -6.4688      1.00000
    304      -6.4685      1.00000
    305      -6.4675      1.00000
    306      -6.4674      1.00000
    307      -6.4640      1.00000
    308      -6.4638      1.00000
    309      -6.4630      1.00000
    310      -6.4620      1.00000
    311      -6.4612      1.00000
    312      -6.4610      1.00000
    313      -6.4444      1.00000
    314      -6.4417      1.00000
    315      -6.4354      1.00000
    316      -6.4351      1.00000
    317      -6.4331      1.00000
    318      -6.4327      1.00000
    319      -6.4255      1.00000
    320      -6.4240      1.00000
    321      -6.4229      1.00000
    322      -6.4214      1.00000
    323      -6.3947      1.00000
    324      -6.3939      1.00000
    325      -6.3930      1.00000
    326      -6.3919      1.00000
    327      -6.3913      1.00000
    328      -6.3905      1.00000
    329      -6.3672      1.00000
    330      -6.3654      1.00000
    331      -6.3582      1.00000
    332      -6.3551      1.00000
    333      -6.3381      1.00000
    334      -6.3368      1.00000
    335      -6.3350      1.00000
    336      -6.3347      1.00000
    337      -6.3286      1.00000
    338      -6.3283      1.00000
    339      -6.3252      1.00000
    340      -6.3251      1.00000
    341      -6.3093      1.00000
    342      -6.3091      1.00000
    343      -6.3078      1.00000
    344      -6.3072      1.00000
    345      -6.2617      1.00000
    346      -6.2577      1.00000
    347      -6.2332      1.00000
    348      -6.2314      1.00000
    349      -6.2307      1.00000
    350      -6.2291      1.00000
    351      -6.2137      1.00000
    352      -6.2121      1.00000
    353      -6.2111      1.00000
    354      -6.2078      1.00000
    355      -6.2036      1.00000
    356      -6.2036      1.00000
    357      -6.1961      1.00000
    358      -6.1960      1.00000
    359      -6.1837      1.00000
    360      -6.1835      1.00000
    361      -6.1805      1.00000
    362      -6.1802      1.00000
    363      -6.1776      1.00000
    364      -6.1681      1.00000
    365      -6.1670      1.00000
    366      -6.1660      1.00000
    367      -6.1243      1.00000
    368      -6.1224      1.00000
    369      -6.1200      1.00000
    370      -6.1197      1.00000
    371      -6.1161      1.00000
    372      -6.1011      1.00000
    373      -6.0805      1.00000
    374      -6.0756      1.00000
    375      -6.0686      1.00000
    376      -6.0662      1.00000
    377      -6.0643      1.00000
    378      -6.0608      1.00000
    379      -5.9935      1.00000
    380      -5.9923      1.00000
    381      -5.9379      1.00000
    382      -5.9376      1.00000
    383      -5.9261      1.00000
    384      -5.9258      1.00000
    385      -5.3492      1.00000
    386      -5.3434      1.00000
    387      -5.3385      1.00000
    388      -5.3327      1.00000
    389      -4.7501      1.00000
    390      -4.7393      1.00000
    391      -4.7382      1.00000
    392      -4.7305      1.00000
    393      -4.7213      1.00000
    394      -4.7188      1.00000
    395      -3.1993      1.00000
    396      -3.1876      1.00000
    397      -3.0630      1.00000
    398      -3.0626      1.00000
    399      -3.0621      1.00000
    400      -3.0616      1.00000
    401      -3.0562      1.00000
    402      -3.0557      1.00000
    403      -2.9729      1.00000
    404      -2.9725      1.00000
    405      -2.9723      1.00000
    406      -2.9719      1.00000
    407      -2.9126      1.00000
    408      -2.9125      1.00000
    409      -2.9089      1.00000
    410      -2.9085      1.00000
    411      -2.7872      1.00000
    412      -2.7862      1.00000
    413      -2.7858      1.00000
    414      -2.7849      1.00000
    415      -2.6024      1.00000
    416      -2.6017      1.00000
    417      -2.6011      1.00000
    418      -2.6004      1.00000
    419      -2.5418      1.00000
    420      -2.5417      1.00000
    421      -2.5125      1.00000
    422      -2.4934      1.00000
    423      -2.3774      1.00000
    424      -2.3768      1.00000
    425      -2.3752      1.00000
    426      -2.3746      1.00000
    427      -2.3707      1.00000
    428      -2.3679      1.00000
    429      -2.2836      1.00000
    430      -2.2830      1.00000
    431      -2.2826      1.00000
    432      -2.2820      1.00000
    433      -2.2452      1.00000
    434      -2.2431      1.00000
    435      -2.1637      1.00000
    436      -2.1614      1.00000
    437      -2.1609      1.00000
    438      -2.1585      1.00000
    439      -2.1248      1.00000
    440      -2.1238      1.00000
    441      -2.1221      1.00000
    442      -2.1211      1.00000
    443      -2.0565      1.00000
    444      -2.0534      1.00000
    445      -1.3266      1.00000
    446      -1.2975      1.00000
    447      -1.2088      1.00000
    448      -1.2068      1.00000
    449      -1.2022      1.00000
    450      -1.1988      1.00000
    451      -1.1960      1.00000
    452      -1.1946      1.00000
    453      -1.1529      1.00000
    454      -1.1527      1.00000
    455      -1.1426      1.00000
    456      -1.1412      1.00000
    457      -1.1333      1.00000
    458      -1.1305      1.00000
    459      -1.1289      1.00000
    460      -1.1210      1.00000
    461      -1.1149      1.00000
    462      -1.1106      1.00000
    463      -0.9637      1.00000
    464      -0.9299      1.00000
    465      -0.8498      1.00000
    466      -0.8457      1.00000
    467      -0.8432      1.00000
    468      -0.8394      1.00000
    469      -0.8370      1.00000
    470      -0.8275      1.00000
    471      -0.7776      1.00000
    472      -0.7774      1.00000
    473      -0.7722      1.00000
    474      -0.7688      1.00000
    475      -0.7629      1.00000
    476      -0.7594      1.00000
    477      -0.7554      1.00000
    478      -0.7522      1.00000
    479      -0.7192      1.00000
    480      -0.7155      1.00000
    481      -0.7151      1.00000
    482      -0.7148      1.00000
    483      -0.7031      1.00000
    484      -0.6990      1.00000
    485      -0.6961      1.00000
    486      -0.6889      1.00000
    487      -0.6757      1.00000
    488      -0.6742      1.00000
    489      -0.6582      1.00000
    490      -0.6580      1.00000
    491      -0.6570      1.00000
    492      -0.6501      1.00000
    493      -0.6222      1.00000
    494      -0.6100      1.00000
    495      -0.5726      1.00000
    496      -0.5712      1.00000
    497      -0.5618      1.00000
    498      -0.5607      1.00000
    499      -0.5393      1.00000
    500      -0.5382      1.00000
    501      -0.5200      1.00000
    502      -0.5171      1.00000
    503      -0.5163      1.00000
    504      -0.5152      1.00000
    505      -0.4587      1.00000
    506      -0.4580      1.00000
    507      -0.4559      1.00000
    508      -0.4542      1.00000
    509      -0.4087      1.00000
    510      -0.3981      1.00000
    511      -0.2359      1.00000
    512      -0.2355      1.00000
    513      -0.2243      1.00000
    514      -0.2201      1.00000
    515      -0.1771      1.00000
    516      -0.1669      1.00000
    517       0.2175      1.00000
    518       0.2213      1.00000
    519       0.2297      1.00000
    520       0.2344      1.00000
    521       0.2459      1.00000
    522       0.2556      1.00000
    523       0.2606      1.00000
    524       0.2655      1.00000
    525       0.2849      1.00000
    526       0.2862      1.00000
    527       0.2995      1.00000
    528       0.3000      1.00000
    529       0.4305      1.00000
    530       0.4453      1.00000
    531       0.4455      1.00000
    532       0.4488      1.00000
    533       0.4620      1.00000
    534       0.4637      1.00000
    535       0.4650      1.00000
    536       0.4799      1.00000
    537       0.6068      1.00000
    538       0.6073      1.00000
    539       0.6189      1.00000
    540       0.6195      1.00000
    541       0.6345      1.00000
    542       0.6353      1.00000
    543       0.6432      1.00000
    544       0.6554      1.00000
    545       0.6555      1.00000
    546       0.6560      1.00000
    547       0.6681      1.00000
    548       0.6712      1.00000
    549       0.6962      1.00000
    550       0.7048      1.00000
    551       0.7163      1.00000
    552       0.7200      1.00000
    553       0.7207      1.00000
    554       0.7256      1.00000
    555       0.7334      1.00000
    556       0.7335      1.00000
    557       0.7408      1.00000
    558       0.7426      1.00000
    559       0.7490      1.00000
    560       0.7564      1.00000
    561       0.7694      1.00000
    562       0.7696      1.00000
    563       0.7718      1.00000
    564       0.7860      1.00000
    565       0.7935      1.00000
    566       0.8019      1.00000
    567       0.8151      1.00000
    568       0.8253      1.00000
    569       0.8331      1.00000
    570       0.8362      1.00000
    571       0.8432      1.00000
    572       0.8505      1.00000
    573       0.9801      1.00000
    574       0.9998      1.00000
    575       1.0629      1.00000
    576       1.0656      1.00000
    577       1.0715      1.00000
    578       1.0725      1.00000
    579       1.1418      1.00000
    580       1.1420      1.00000
    581       1.1760      1.00000
    582       1.1780      1.00000
    583       1.8193      1.00000
    584       1.8421      1.00000
    585       1.8633      1.00000
    586       1.8831      1.00000
    587       2.8004      1.00000
    588       2.8073      1.00000
    589       3.7246      1.00000
    590       3.7407      0.03949
    591       4.1552      0.03725
    592       4.1560      0.03597
    593       4.1569      0.00275
    594       4.1884      0.00000
    595       4.1897      0.00000
    596       4.1903      0.00000
    597       4.1939      0.00000
    598       4.2243      0.00000
    599       4.8745      0.00000
    600       4.8745      0.00000
    601       4.9239      0.00000
    602       4.9240      0.00000
    603       5.1256      0.00000
    604       5.1328      0.00000
    605       5.1343      0.00000
    606       5.1356      0.00000
    607       5.1590      0.00000
    608       5.1653      0.00000
    609       5.1918      0.00000
    610       5.1926      0.00000
    611       5.2918      0.00000
    612       5.3122      0.00000
    613       5.3154      0.00000
    614       5.3408      0.00000
    615       5.3775      0.00000
    616       5.3801      0.00000
    617       5.3897      0.00000
    618       5.4031      0.00000
    619       5.4563      0.00000
    620       5.4768      0.00000
    621       5.4773      0.00000
    622       5.4790      0.00000
    623       5.4800      0.00000
    624       5.4810      0.00000
    625       5.5006      0.00000
    626       5.5007      0.00000
    627       5.5147      0.00000
    628       5.5184      0.00000
    629       5.5245      0.00000
    630       5.5313      0.00000
    631       5.5321      0.00000
    632       5.5344      0.00000
    633       5.5551      0.00000
    634       5.5552      0.00000
    635       5.5599      0.00000
    636       5.5616      0.00000
    637       5.5680      0.00000
    638       5.5702      0.00000
    639       5.5767      0.00000
    640       5.5784      0.00000
    641       5.5811      0.00000
    642       5.5876      0.00000
    643       5.5901      0.00000
    644       5.5902      0.00000
    645       5.5972      0.00000
    646       5.5977      0.00000
    647       5.5977      0.00000
    648       5.6022      0.00000
    649       5.6026      0.00000
    650       5.6055      0.00000
    651       5.6133      0.00000
    652       5.6158      0.00000
    653       5.6233      0.00000
    654       5.6316      0.00000
    655       5.6444      0.00000
    656       5.6520      0.00000
    657       6.3236      0.00000
    658       6.4372      0.00000
    659       6.5556      0.00000
    660       6.5933      0.00000
    661       6.6063      0.00000
    662       6.6673      0.00000
    663       6.7883      0.00000
    664       6.8137      0.00000
    665       6.8674      0.00000
    666       6.9040      0.00000
    667       6.9297      0.00000
    668       6.9518      0.00000
    669       6.9680      0.00000
    670       6.9779      0.00000
    671       6.9815      0.00000
    672       6.9932      0.00000
    673       6.9987      0.00000
    674       7.0086      0.00000
    675       7.0200      0.00000
    676       7.0787      0.00000
    677       7.0821      0.00000
    678       7.0896      0.00000
    679       7.1063      0.00000
    680       7.1432      0.00000
    681       7.1617      0.00000
    682       7.1709      0.00000
    683       7.1849      0.00000
    684       7.1920      0.00000
    685       7.1921      0.00000
    686       7.2054      0.00000
    687       7.2516      0.00000
    688       7.2566      0.00000
    689       7.2671      0.00000
    690       7.2692      0.00000
    691       7.2765      0.00000
    692       7.3076      0.00000
    693       7.3215      0.00000
    694       7.3470      0.00000
    695       7.3571      0.00000
    696       7.4352      0.00000
    697       7.4449      0.00000
    698       7.4941      0.00000
    699       7.5066      0.00000
    700       7.5162      0.00000
    701       7.5248      0.00000
    702       7.5274      0.00000
    703       7.5333      0.00000
    704       7.5341      0.00000
    705       7.5767      0.00000
    706       7.5784      0.00000
    707       7.5802      0.00000
    708       7.6105      0.00000
    709       7.6159      0.00000
    710       7.6410      0.00000
    711       7.6837      0.00000
    712       7.6861      0.00000
    713       7.6964      0.00000
    714       7.6979      0.00000
    715       7.7057      0.00000
    716       7.7129      0.00000
    717       7.7396      0.00000
    718       7.7566      0.00000
    719       7.7577      0.00000
    720       7.7578      0.00000
    721       7.7642      0.00000
    722       7.7676      0.00000
    723       7.7806      0.00000
    724       7.7868      0.00000
    725       7.7873      0.00000
    726       7.7995      0.00000
    727       7.8095      0.00000
    728       7.8152      0.00000
    729       7.8303      0.00000
    730       7.8382      0.00000
    731       7.8508      0.00000
    732       7.8537      0.00000
    733       7.8567      0.00000
    734       7.8613      0.00000
    735       7.8689      0.00000
    736       7.8792      0.00000
    737       7.8798      0.00000
    738       7.8869      0.00000
    739       7.8879      0.00000
    740       7.8888      0.00000
    741       7.8953      0.00000
    742       7.9028      0.00000
    743       7.9856      0.00000
    744       8.0168      0.00000
    745       8.0283      0.00000
    746       8.0445      0.00000
    747       8.0528      0.00000
    748       8.0726      0.00000
    749       8.1190      0.00000
    750       8.1285      0.00000
    751       8.1807      0.00000
    752       8.2031      0.00000
    753       8.2077      0.00000
    754       8.2217      0.00000
    755       8.2589      0.00000
    756       8.2666      0.00000
    757       8.2669      0.00000
    758       8.2720      0.00000
    759       8.2729      0.00000
    760       8.3084      0.00000
    761       8.3151      0.00000
    762       8.3183      0.00000
    763       8.3325      0.00000
    764       8.3388      0.00000
    765       8.3638      0.00000
    766       8.3682      0.00000
    767       8.3697      0.00000
    768       8.3705      0.00000
    769       8.3871      0.00000
    770       8.3873      0.00000
    771       8.3915      0.00000
    772       8.4722      0.00000
    773       8.4768      0.00000
    774       8.5275      0.00000
    775       8.5511      0.00000
    776       8.5773      0.00000

 k-point     2 :       0.5000    0.0000    0.0000
  band No.  band energies     occupation 
      1     -10.6051      1.00000
      2     -10.5686      1.00000
      3     -10.5195      1.00000
      4     -10.4821      1.00000
      5     -10.3735      1.00000
      6     -10.3725      1.00000
      7     -10.3573      1.00000
      8     -10.3434      1.00000
      9     -10.3333      1.00000
     10     -10.3324      1.00000
     11     -10.3176      1.00000
     12     -10.3035      1.00000
     13     -10.2931      1.00000
     14     -10.2824      1.00000
     15     -10.2821      1.00000
     16     -10.2649      1.00000
     17     -10.2523      1.00000
     18     -10.2467      1.00000
     19     -10.2417      1.00000
     20     -10.2408      1.00000
     21     -10.2340      1.00000
     22     -10.2331      1.00000
     23     -10.2246      1.00000
     24     -10.2042      1.00000
     25     -10.2032      1.00000
     26     -10.2001      1.00000
     27     -10.1933      1.00000
     28     -10.1924      1.00000
     29     -10.1609      1.00000
     30     -10.1585      1.00000
     31     -10.1580      1.00000
     32     -10.1579      1.00000
     33     -10.1485      1.00000
     34     -10.1470      1.00000
     35     -10.1454      1.00000
     36     -10.1164      1.00000
     37     -10.1156      1.00000
     38     -10.1066      1.00000
     39     -10.1046      1.00000
     40     -10.1031      1.00000
     41     -10.0873      1.00000
     42     -10.0818      1.00000
     43     -10.0684      1.00000
     44     -10.0667      1.00000
     45     -10.0662      1.00000
     46     -10.0491      1.00000
     47     -10.0433      1.00000
     48     -10.0385      1.00000
     49     -10.0260      1.00000
     50     -10.0242      1.00000
     51     -10.0238      1.00000
     52     -10.0050      1.00000
     53      -9.8355      1.00000
     54      -9.7867      1.00000
     55      -9.7353      1.00000
     56      -9.7348      1.00000
     57      -9.7196      1.00000
     58      -9.6989      1.00000
     59      -9.6873      1.00000
     60      -9.6843      1.00000
     61      -9.6837      1.00000
     62      -9.6687      1.00000
     63      -9.6473      1.00000
     64      -9.6351      1.00000
     65      -7.5014      1.00000
     66      -7.5009      1.00000
     67      -7.4989      1.00000
     68      -7.4982      1.00000
     69      -7.4923      1.00000
     70      -7.4904      1.00000
     71      -7.4887      1.00000
     72      -7.4865      1.00000
     73      -7.4534      1.00000
     74      -7.4522      1.00000
     75      -7.4513      1.00000
     76      -7.4502      1.00000
     77      -7.4494      1.00000
     78      -7.4491      1.00000
     79      -7.4394      1.00000
     80      -7.4359      1.00000
     81      -7.4340      1.00000
     82      -7.4317      1.00000
     83      -7.4271      1.00000
     84      -7.4259      1.00000
     85      -7.4207      1.00000
     86      -7.4193      1.00000
     87      -7.4164      1.00000
     88      -7.4148      1.00000
     89      -7.4023      1.00000
     90      -7.4006      1.00000
     91      -7.4004      1.00000
     92      -7.3987      1.00000
     93      -7.3986      1.00000
     94      -7.3972      1.00000
     95      -7.3936      1.00000
     96      -7.3930      1.00000
     97      -7.3919      1.00000
     98      -7.3911      1.00000
     99      -7.3801      1.00000
    100      -7.3779      1.00000
    101      -7.3771      1.00000
    102      -7.3763      1.00000
    103      -7.3646      1.00000
    104      -7.3628      1.00000
[...]
 l=   3
     0.0000000     0.0000000     0.0000000     0.0000000     0.0000000     0.0000000     0.0000000
     0.0000000     0.0000000     0.0000000     0.0000000     0.0000000     0.0000000     0.0000000
     0.0000000     0.0000000     0.0000000     0.0000000     0.0000000     0.0000000     0.0000000
     0.0000000     0.0000000     0.0000000     0.0000000     0.0000000     0.0000000     0.0000000
     0.0000000     0.0000000     0.0000000     0.0000000     0.0000000     0.0000000     0.0000000
     0.0000000     0.0000000     0.0000000     0.0000000     0.0000000     0.0000000     0.0000000
     0.0000000     0.0000000     0.0000000     0.0000000     0.0000000     0.0000000     0.0000000

 Ion:   61  E_soc:     -0.1806393
 l=   1
     0.0000000    -0.0300073    -0.0300589
    -0.0300073     0.0000000    -0.0300170
    -0.0300589    -0.0300170     0.0000000
 l=   2
    -0.0000000    -0.0000294     0.0000000    -0.0000283    -0.0000527
    -0.0000294    -0.0000000    -0.0000367    -0.0000293    -0.0000121
     0.0000000    -0.0000367     0.0000000    -0.0000359     0.0000000
    -0.0000283    -0.0000293    -0.0000359    -0.0000000    -0.0000120
    -0.0000527    -0.0000121     0.0000000    -0.0000120    -0.0000000
 l=   3
     0.0000000     0.0000000     0.0000000     0.0000000     0.0000000     0.0000000     0.0000000
     0.0000000     0.0000000     0.0000000     0.0000000     0.0000000     0.0000000     0.0000000
     0.0000000     0.0000000     0.0000000     0.0000000     0.0000000     0.0000000     0.0000000
     0.0000000     0.0000000     0.0000000     0.0000000     0.0000000     0.0000000     0.0000000
     0.0000000     0.0000000     0.0000000     0.0000000     0.0000000     0.0000000     0.0000000
     0.0000000     0.0000000     0.0000000     0.0000000     0.0000000     0.0000000     0.0000000
     0.0000000     0.0000000     0.0000000     0.0000000     0.0000000     0.0000000     0.0000000

 Ion:   62  E_soc:     -0.1806268
 l=   1
     0.0000000    -0.0300562    -0.0300068
    -0.0300562     0.0000000    -0.0300144
    -0.0300068    -0.0300144     0.0000000
 l=   2
    -0.0000000    -0.0000290     0.0000000    -0.0000293    -0.0000489
    -0.0000290    -0.0000000    -0.0000387    -0.0000283    -0.0000138
     0.0000000    -0.0000387     0.0000000    -0.0000359     0.0000000
    -0.0000293    -0.0000283    -0.0000359    -0.0000000    -0.0000121
    -0.0000489    -0.0000138     0.0000000    -0.0000121    -0.0000000
 l=   3
     0.0000000     0.0000000     0.0000000     0.0000000     0.0000000     0.0000000     0.0000000
     0.0000000     0.0000000     0.0000000     0.0000000     0.0000000     0.0000000     0.0000000
     0.0000000     0.0000000     0.0000000     0.0000000     0.0000000     0.0000000     0.0000000
     0.0000000     0.0000000     0.0000000     0.0000000     0.0000000     0.0000000     0.0000000
     0.0000000     0.0000000     0.0000000     0.0000000     0.0000000     0.0000000     0.0000000
     0.0000000     0.0000000     0.0000000     0.0000000     0.0000000     0.0000000     0.0000000
     0.0000000     0.0000000     0.0000000     0.0000000     0.0000000     0.0000000     0.0000000

 Ion:   63  E_soc:     -0.1829885
 l=   1
     0.0000000    -0.0304516    -0.0304483
    -0.0304516     0.0000000    -0.0303890
    -0.0304483    -0.0303890     0.0000000
 l=   2
    -0.0000000    -0.0000260     0.0000000    -0.0000257    -0.0000426
    -0.0000260    -0.0000000    -0.0000320    -0.0000257    -0.0000102
     0.0000000    -0.0000320     0.0000000    -0.0000324     0.0000000
    -0.0000257    -0.0000257    -0.0000324    -0.0000000    -0.0000108
    -0.0000426    -0.0000102     0.0000000    -0.0000108     0.0000000
 l=   3
     0.0000000     0.0000000     0.0000000     0.0000000     0.0000000     0.0000000     0.0000000
     0.0000000     0.0000000     0.0000000     0.0000000     0.0000000     0.0000000     0.0000000
     0.0000000     0.0000000     0.0000000     0.0000000     0.0000000     0.0000000     0.0000000
     0.0000000     0.0000000     0.0000000     0.0000000     0.0000000     0.0000000     0.0000000
     0.0000000     0.0000000     0.0000000     0.0000000     0.0000000     0.0000000     0.0000000
     0.0000000     0.0000000     0.0000000     0.0000000     0.0000000     0.0000000     0.0000000
     0.0000000     0.0000000     0.0000000     0.0000000     0.0000000     0.0000000     0.0000000

 Ion:   64  E_soc:     -0.1806469
 l=   1
     0.0000000    -0.0300612    -0.0300078
    -0.0300612     0.0000000    -0.0300173
    -0.0300078    -0.0300173     0.0000000
 l=   2
    -0.0000000    -0.0000292     0.0000000    -0.0000294    -0.0000490
    -0.0000292    -0.0000000    -0.0000389    -0.0000284    -0.0000139
     0.0000000    -0.0000389     0.0000000    -0.0000360     0.0000000
    -0.0000294    -0.0000284    -0.0000360    -0.0000000    -0.0000122
    -0.0000490    -0.0000139     0.0000000    -0.0000122    -0.0000000
 l=   3
     0.0000000     0.0000000     0.0000000     0.0000000     0.0000000     0.0000000     0.0000000
     0.0000000     0.0000000     0.0000000     0.0000000     0.0000000     0.0000000     0.0000000
     0.0000000     0.0000000     0.0000000     0.0000000     0.0000000     0.0000000     0.0000000
     0.0000000     0.0000000     0.0000000     0.0000000     0.0000000     0.0000000     0.0000000
     0.0000000     0.0000000     0.0000000     0.0000000     0.0000000     0.0000000     0.0000000
     0.0000000     0.0000000     0.0000000     0.0000000     0.0000000     0.0000000     0.0000000
     0.0000000     0.0000000     0.0000000     0.0000000     0.0000000     0.0000000     0.0000000

 Ion:   65  E_soc:     -0.1830029
 l=   1
     0.0000000    -0.0304486    -0.0304567
    -0.0304486     0.0000000    -0.0303903
    -0.0304567    -0.0303903     0.0000000
 l=   2
    -0.0000000    -0.0000259     0.0000000    -0.0000258    -0.0000425
    -0.0000259    -0.0000000    -0.0000324    -0.0000258    -0.0000103
     0.0000000    -0.0000324     0.0000000    -0.0000325     0.0000000
    -0.0000258    -0.0000258    -0.0000325    -0.0000000    -0.0000108
    -0.0000425    -0.0000103     0.0000000    -0.0000108     0.0000000
 l=   3
     0.0000000     0.0000000     0.0000000     0.0000000     0.0000000     0.0000000     0.0000000
     0.0000000     0.0000000     0.0000000     0.0000000     0.0000000     0.0000000     0.0000000
     0.0000000     0.0000000     0.0000000     0.0000000     0.0000000     0.0000000     0.0000000
     0.0000000     0.0000000     0.0000000     0.0000000     0.0000000     0.0000000     0.0000000
     0.0000000     0.0000000     0.0000000     0.0000000     0.0000000     0.0000000     0.0000000
     0.0000000     0.0000000     0.0000000     0.0000000     0.0000000     0.0000000     0.0000000
     0.0000000     0.0000000     0.0000000     0.0000000     0.0000000     0.0000000     0.0000000



 total charge     

# of ion       s       p       d       tot
------------------------------------------
    1        0.433   0.296   9.507  10.236
    2        0.442   0.309   9.508  10.259
    3        0.442   0.309   9.508  10.259
    4        0.441   0.309   9.508  10.258
    5        0.442   0.309   9.508  10.259
    6        0.441   0.309   9.508  10.258
    7        0.441   0.309   9.508  10.258
    8        0.440   0.306   9.509  10.254
    9        0.442   0.309   9.508  10.259
   10        0.433   0.296   9.507  10.236
   11        0.441   0.309   9.508  10.258
   12        0.442   0.309   9.508  10.259
   13        0.441   0.309   9.508  10.258
   14        0.442   0.309   9.508  10.259
   15        0.440   0.306   9.509  10.254
   16        0.441   0.309   9.508  10.258
   17        0.441   0.309   9.508  10.258
   18        0.442   0.309   9.508  10.259
   19        0.440   0.306   9.509  10.254
   20        0.441   0.309   9.508  10.258
   21        0.442   0.309   9.508  10.259
   22        0.433   0.296   9.507  10.236
   23        0.441   0.309   9.508  10.258
   24        0.442   0.309   9.508  10.259
   25        0.442   0.309   9.508  10.259
   26        0.441   0.309   9.508  10.258
   27        0.441   0.309   9.508  10.258
   28        0.440   0.306   9.509  10.254
   29        0.433   0.296   9.507  10.236
   30        0.442   0.309   9.508  10.259
   31        0.442   0.309   9.508  10.259
   32        0.441   0.309   9.508  10.258
   33        0.691   0.189   9.497  10.377
   34        1.313   2.162   0.021   3.496
   35        1.325   2.139   0.021   3.486
   36        1.313   2.159   0.020   3.493
   37        1.313   2.162   0.021   3.496
   38        1.313   2.162   0.021   3.496
   39        1.325   2.139   0.021   3.486
   40        1.313   2.159   0.020   3.493
   41        1.313   2.162   0.021   3.496
   42        1.313   2.158   0.020   3.491
   43        1.314   2.156   0.021   3.490
   44        1.314   2.156   0.021   3.490
   45        1.313   2.158   0.020   3.491
   46        1.314   2.156   0.021   3.490
   47        1.313   2.158   0.020   3.491
   48        1.313   2.158   0.020   3.491
   49        1.314   2.156   0.021   3.490
   50        1.313   2.162   0.021   3.496
   51        1.313   2.162   0.021   3.496
   52        1.313   2.159   0.020   3.493
   53        1.313   2.159   0.020   3.493
   54        1.325   2.139   0.021   3.486
   55        1.325   2.139   0.021   3.486
   56        1.313   2.162   0.021   3.496
   57        1.313   2.162   0.021   3.496
   58        1.313   2.159   0.020   3.493
   59        1.313   2.162   0.021   3.496
   60        1.313   2.159   0.020   3.493
   61        1.313   2.162   0.021   3.496
   62        1.313   2.162   0.021   3.496
   63        1.325   2.139   0.021   3.486
   64        1.313   2.162   0.021   3.496
   65        1.325   2.139   0.021   3.486
--------------------------------------------------
tot         56.877  78.991 314.423 450.291



 magnetization (x)

# of ion       s       p       d       tot
------------------------------------------
    1       -0.003  -0.003   0.004  -0.003
    2       -0.004  -0.002   0.003  -0.003
    3       -0.004  -0.003   0.003  -0.003
    4       -0.004  -0.003   0.003  -0.003
    5       -0.004  -0.003   0.003  -0.003
    6       -0.004  -0.003   0.003  -0.003
    7       -0.004  -0.003   0.003  -0.003
    8       -0.004  -0.003   0.003  -0.004
    9       -0.004  -0.003   0.003  -0.003
   10       -0.003  -0.003   0.004  -0.003
   11       -0.004  -0.003   0.003  -0.003
   12       -0.004  -0.002   0.003  -0.003
   13       -0.004  -0.003   0.003  -0.003
   14       -0.004  -0.003   0.003  -0.003
   15       -0.004  -0.003   0.003  -0.004
   16       -0.004  -0.003   0.003  -0.003
   17       -0.004  -0.003   0.003  -0.003
   18       -0.004  -0.003   0.003  -0.003
   19       -0.004  -0.003   0.003  -0.004
   20       -0.004  -0.003   0.003  -0.003
   21       -0.004  -0.002   0.003  -0.003
   22       -0.003  -0.003   0.004  -0.003
   23       -0.004  -0.003   0.003  -0.003
   24       -0.004  -0.002   0.003  -0.003
   25       -0.004  -0.002   0.003  -0.003
   26       -0.004  -0.003   0.003  -0.003
   27       -0.004  -0.003   0.003  -0.003
   28       -0.004  -0.003   0.003  -0.004
   29       -0.003  -0.003   0.004  -0.003
   30       -0.004  -0.003   0.003  -0.003
   31       -0.004  -0.003   0.003  -0.003
   32       -0.004  -0.003   0.003  -0.003
   33        0.027  -0.003   0.002   0.026
   34        0.008   0.024  -0.000   0.031
   35        0.008   0.027  -0.000   0.035
   36        0.008   0.024  -0.000   0.031
   37        0.008   0.024  -0.000   0.031
   38        0.008   0.024  -0.000   0.031
   39        0.008   0.027  -0.000   0.035
   40        0.008   0.023  -0.000   0.031
   41        0.008   0.024  -0.000   0.031
   42        0.008   0.023  -0.000   0.031
   43        0.008   0.024  -0.000   0.032
   44        0.008   0.024  -0.000   0.032
   45        0.008   0.023  -0.000   0.031
   46        0.008   0.024  -0.000   0.032
   47        0.008   0.023  -0.000   0.031
   48        0.008   0.024  -0.000   0.031
   49        0.008   0.024  -0.000   0.032
   50        0.008   0.024  -0.000   0.031
   51        0.008   0.024  -0.000   0.031
   52        0.008   0.024  -0.000   0.031
   53        0.008   0.024  -0.000   0.031
   54        0.008   0.027  -0.000   0.035
   55        0.008   0.027  -0.000   0.035
   56        0.008   0.024  -0.000   0.031
   57        0.008   0.024  -0.000   0.031
   58        0.008   0.024  -0.000   0.031
   59        0.008   0.024  -0.000   0.031
   60        0.008   0.024  -0.000   0.031
   61        0.008   0.024  -0.000   0.031
   62        0.008   0.024  -0.000   0.031
   63        0.008   0.027  -0.000   0.035
   64        0.008   0.024  -0.000   0.031
   65        0.008   0.027  -0.000   0.035
--------------------------------------------------
tot          0.161   0.689   0.090   0.940



 magnetization (y)

# of ion       s       p       d       tot
------------------------------------------
    1       -0.003  -0.003   0.004  -0.003
    2       -0.004  -0.003   0.003  -0.003
    3       -0.004  -0.002   0.003  -0.003
    4       -0.004  -0.003   0.003  -0.003
    5       -0.004  -0.003   0.003  -0.003
    6       -0.004  -0.003   0.003  -0.003
    7       -0.004  -0.003   0.003  -0.003
    8       -0.004  -0.003   0.003  -0.004
    9       -0.004  -0.003   0.003  -0.003
   10       -0.003  -0.003   0.004  -0.003
   11       -0.004  -0.003   0.003  -0.003
   12       -0.004  -0.003   0.003  -0.003
   13       -0.004  -0.003   0.003  -0.003
   14       -0.004  -0.002   0.003  -0.003
   15       -0.004  -0.003   0.003  -0.004
   16       -0.004  -0.003   0.003  -0.003
   17       -0.004  -0.003   0.003  -0.003
   18       -0.004  -0.002   0.003  -0.003
   19       -0.004  -0.003   0.003  -0.004
   20       -0.004  -0.003   0.003  -0.003
   21       -0.004  -0.002   0.003  -0.003
   22       -0.003  -0.003   0.004  -0.003
   23       -0.004  -0.003   0.003  -0.003
   24       -0.004  -0.003   0.003  -0.003
   25       -0.004  -0.003   0.003  -0.003
   26       -0.004  -0.003   0.003  -0.003
   27       -0.004  -0.003   0.003  -0.003
   28       -0.004  -0.003   0.003  -0.004
   29       -0.003  -0.003   0.004  -0.003
   30       -0.004  -0.002   0.003  -0.003
   31       -0.004  -0.003   0.003  -0.003
   32       -0.004  -0.003   0.003  -0.003
   33        0.027  -0.003   0.002   0.026
   34        0.008   0.024  -0.000   0.031
   35        0.008   0.027  -0.000   0.035
   36        0.008   0.023  -0.000   0.031
   37        0.008   0.024  -0.000   0.031
   38        0.008   0.024  -0.000   0.031
   39        0.008   0.027  -0.000   0.035
   40        0.008   0.024  -0.000   0.031
   41        0.008   0.024  -0.000   0.031
   42        0.008   0.023  -0.000   0.031
   43        0.008   0.024  -0.000   0.032
   44        0.008   0.024  -0.000   0.032
   45        0.008   0.023  -0.000   0.031
   46        0.008   0.024  -0.000   0.032
   47        0.008   0.023  -0.000   0.031
   48        0.008   0.023  -0.000   0.031
   49        0.008   0.024  -0.000   0.032
   50        0.008   0.024  -0.000   0.031
   51        0.008   0.024  -0.000   0.031
   52        0.008   0.024  -0.000   0.031
   53        0.008   0.024  -0.000   0.031
   54        0.008   0.027  -0.000   0.035
   55        0.008   0.027  -0.000   0.035
   56        0.008   0.024  -0.000   0.031
   57        0.008   0.024  -0.000   0.031
   58        0.008   0.024  -0.000   0.031
   59        0.008   0.024  -0.000   0.031
   60        0.008   0.024  -0.000   0.031
   61        0.008   0.024  -0.000   0.031
   62        0.008   0.024  -0.000   0.031
   63        0.008   0.027  -0.000   0.035
   64        0.008   0.024  -0.000   0.031
   65        0.008   0.027  -0.000   0.035
--------------------------------------------------
tot          0.161   0.689   0.090   0.939



 magnetization (z)

# of ion       s       p       d       tot
------------------------------------------
    1       -0.003  -0.003   0.004  -0.003
    2       -0.004  -0.003   0.003  -0.003
    3       -0.004  -0.003   0.003  -0.003
    4       -0.004  -0.003   0.003  -0.003
    5       -0.004  -0.002   0.003  -0.003
    6       -0.004  -0.003   0.003  -0.003
    7       -0.004  -0.003   0.003  -0.003
    8       -0.004  -0.003   0.003  -0.004
    9       -0.004  -0.002   0.003  -0.003
   10       -0.003  -0.003   0.004  -0.003
   11       -0.004  -0.003   0.003  -0.003
   12       -0.004  -0.003   0.003  -0.003
   13       -0.004  -0.003   0.003  -0.003
   14       -0.004  -0.003   0.003  -0.003
   15       -0.004  -0.003   0.003  -0.003
   16       -0.004  -0.003   0.003  -0.003
   17       -0.004  -0.003   0.003  -0.003
   18       -0.004  -0.002   0.003  -0.003
   19       -0.004  -0.003   0.003  -0.004
   20       -0.004  -0.003   0.003  -0.003
   21       -0.004  -0.003   0.003  -0.003
   22       -0.003  -0.003   0.004  -0.003
   23       -0.004  -0.003   0.003  -0.003
   24       -0.004  -0.002   0.003  -0.003
   25       -0.004  -0.003   0.003  -0.003
   26       -0.004  -0.003   0.003  -0.003
   27       -0.004  -0.003   0.003  -0.003
   28       -0.004  -0.003   0.003  -0.004
   29       -0.003  -0.003   0.004  -0.003
   30       -0.004  -0.003   0.003  -0.003
   31       -0.004  -0.002   0.003  -0.003
   32       -0.004  -0.003   0.003  -0.003
   33        0.027  -0.003   0.002   0.026
   34        0.008   0.024  -0.000   0.031
   35        0.008   0.027  -0.000   0.035
   36        0.008   0.024  -0.000   0.031
   37        0.008   0.024  -0.000   0.031
   38        0.008   0.024  -0.000   0.031
   39        0.008   0.027  -0.000   0.035
   40        0.008   0.024  -0.000   0.031
   41        0.008   0.024  -0.000   0.031
   42        0.008   0.023  -0.000   0.031
   43        0.008   0.024  -0.000   0.032
   44        0.008   0.024  -0.000   0.032
   45        0.008   0.024  -0.000   0.031
   46        0.008   0.024  -0.000   0.032
   47        0.008   0.023  -0.000   0.031
   48        0.008   0.024  -0.000   0.031
   49        0.008   0.024  -0.000   0.032
   50        0.008   0.024  -0.000   0.031
   51        0.008   0.024  -0.000   0.031
   52        0.008   0.024  -0.000   0.031
   53        0.008   0.024  -0.000   0.031
   54        0.008   0.027  -0.000   0.035
   55        0.008   0.027  -0.000   0.035
   56        0.008   0.024  -0.000   0.031
   57        0.008   0.024  -0.000   0.031
   58        0.008   0.024  -0.000   0.031
   59        0.008   0.024  -0.000   0.031
   60        0.008   0.024  -0.000   0.031
   61        0.008   0.024  -0.000   0.031
   62        0.008   0.024  -0.000   0.031
   63        0.008   0.027  -0.000   0.035
   64        0.008   0.024  -0.000   0.031
   65        0.008   0.027  -0.000   0.035
--------------------------------------------------
tot          0.160   0.689   0.090   0.940


 total amount of memory used by VASP MPI-rank0   604683. kBytes
=======================================================================

   base      :      30000. kBytes
   nonl-proj :      20385. kBytes
   fftplans  :      36779. kBytes
   grid      :      40697. kBytes
   one-center:        559. kBytes
   HF        :        129. kBytes
   nonlr-proj:      11281. kBytes
   wavefun   :     464853. kBytes

  
  
 General timing and accounting informations for this job:
 ========================================================
  
                  Total CPU time used (sec):    14219.763
                            User time (sec):    14198.208
                          System time (sec):       21.555
                         Elapsed time (sec):    14214.298
  
                   Maximum memory used (kb):     1085436.
                   Average memory used (kb):           0.
  
                          Minor page faults:       308059
                          Major page faults:           28
                 Voluntary context switches:       155615
