 vasp.5.4.4.18Apr17-6-g9f103f2a35 (build Apr 27 2017 19:51:02) complex          
  
 executed on       CrayXC-Intel16 date 2020.11.02  19:44:03
 running on  768 total cores
 distrk:  each k-point on  384 cores,    2 groups
 distr:  one band on NCORES_PER_BAND=  48 cores,    8 groups


--------------------------------------------------------------------------------------------------------


 INCAR:
 POTCAR:    PAW_PBE Cd 06Sep2000                  
 POTCAR:    PAW_PBE Te 08Apr2002                  

 ----------------------------------------------------------------------------- 
|                                                                             |
|           W    W    AA    RRRRR   N    N  II  N    N   GGGG   !!!           |
|           W    W   A  A   R    R  NN   N  II  NN   N  G    G  !!!           |
|           W    W  A    A  R    R  N N  N  II  N N  N  G       !!!           |
|           W WW W  AAAAAA  RRRRR   N  N N  II  N  N N  G  GGG   !            |
|           WW  WW  A    A  R   R   N   NN  II  N   NN  G    G                |
|           W    W  A    A  R    R  N    N  II  N    N   GGGG   !!!           |
|                                                                             |
|      You have enabled k-point parallelism (KPAR>1).                         |
|      This developmental code was originally  written by Paul Kent at ORNL,  |
|      and carefully double checked in Vienna.                                |
|      GW as well as linear response parallelism added by Martijn Marsman     |
|      and Georg Kresse.                                                      |
|      Carefully verify results versus KPAR=1.                                |
|      Report problems to Paul Kent and Vienna.                               |
|                                                                             |
 ----------------------------------------------------------------------------- 

 POTCAR:    PAW_PBE Cd 06Sep2000                  
   VRHFIN =Cd : s2 d10                                                          
   LEXCH  = PE                                                                  
   EATOM  =  1293.1815 eV,   95.0462 Ry                                         
                                                                                
   TITEL  = PAW_PBE Cd 06Sep2000                                                
   LULTRA =        F    use ultrasoft PP ?                                      
   IUNSCR =        1    unscreen: 0-lin 1-nonlin 2-no                           
   RPACOR =    2.000    partial core radius                                     
   POMASS =  112.411; ZVAL   =   12.000    mass and valenz                      
   RCORE  =    2.300    outmost cutoff radius                                   
   RWIGS  =    2.980; RWIGS  =    1.577    wigner-seitz radius (au A)           
   ENMAX  =  274.336; ENMIN  =  205.752 eV                                      
   RCLOC  =    2.054    cutoff for local pot                                    
   LCOR   =        T    correct aug charges                                     
   LPAW   =        T    paw PP                                                  
   EAUG   =  456.106                                                            
   DEXC   =    0.000                                                            
   RMAX   =    2.358    core radius for proj-oper                               
   RAUG   =    1.300    factor for augmentation sphere                          
   RDEP   =    2.450    radius for radial grids                                 
   RDEPT  =    1.955    core radius for aug-charge                              
                                                                                
   Atomic configuration                                                         
   12 entries                                                                   
     n  l   j            E        occ.                                          
     1  0  0.50    -26519.7817   2.0000                                         
     2  0  0.50     -3936.9612   2.0000                                         
     2  1  1.50     -3532.2230   6.0000                                         
     3  0  0.50      -733.7908   2.0000                                         
     3  1  1.50      -601.0792   6.0000                                         
     3  2  2.50      -393.5307  10.0000                                         
     4  0  0.50      -105.8977   2.0000                                         
     4  1  1.50       -66.9488   6.0000                                         
     4  2  2.50       -11.7331  10.0000                                         
     5  0  0.50        -5.6592   2.0000                                         
     5  1  0.50        -1.3606   0.0000                                         
     4  3  2.50        -1.3606   0.0000                                         
   Description                                                                  
     l       E           TYP  RCUT    TYP  RCUT                                 
     2    -11.7331479     23  2.300                                             
     2    -13.0937305     23  2.300                                             
     0     -5.6591502     23  2.300                                             
     0     -1.5561433     23  2.300                                             
     1     -2.7211652     23  2.300                                             
     1      8.3548275     23  2.300                                             
  local pseudopotential read in
  partial core-charges read in
  partial kinetic energy density read in
  atomic valenz-charges read in
  non local Contribution for L=           2  read in
    real space projection operators read in
  non local Contribution for L=           2  read in
    real space projection operators read in
  non local Contribution for L=           0  read in
    real space projection operators read in
  non local Contribution for L=           0  read in
    real space projection operators read in
  non local Contribution for L=           1  read in
    real space projection operators read in
  non local Contribution for L=           1  read in
    real space projection operators read in
    PAW grid and wavefunctions read in
 
   number of l-projection  operators is LMAX  =           6
   number of lm-projection operators is LMMAX =          18
 
 POTCAR:    PAW_PBE Te 08Apr2002                  
   VRHFIN =Te: s2p4                                                             
   LEXCH  = PE                                                                  
   EATOM  =   223.2721 eV,   16.4100 Ry                                         
                                                                                
   TITEL  = PAW_PBE Te 08Apr2002                                                
   LULTRA =        F    use ultrasoft PP ?                                      
   IUNSCR =        1    unscreen: 0-lin 1-nonlin 2-no                           
   RPACOR =    2.200    partial core radius                                     
   POMASS =  127.600; ZVAL   =    6.000    mass and valenz                      
   RCORE  =    2.300    outmost cutoff radius                                   
   RWIGS  =    2.900; RWIGS  =    1.535    wigner-seitz radius (au A)           
   ENMAX  =  174.982; ENMIN  =  131.236 eV                                      
   ICORE  =        3    local potential                                         
   LCOR   =        T    correct aug charges                                     
   LPAW   =        T    paw PP                                                  
   EAUG   =  368.792                                                            
   DEXC   =    0.000                                                            
   RMAX   =    2.345    core radius for proj-oper                               
   RAUG   =    1.300    factor for augmentation sphere                          
   RDEP   =    2.397    radius for radial grids                                 
   RDEPT  =    2.174    core radius for aug-charge                              
                                                                                
   Atomic configuration                                                         
   13 entries                                                                   
     n  l   j            E        occ.                                          
     1  0  0.50    -31621.2075   2.0000                                         
     2  0  0.50     -4848.7941   2.0000                                         
     2  1  1.50     -4352.1960   6.0000                                         
     3  0  0.50      -964.9612   2.0000                                         
     3  1  1.50      -803.6179   6.0000                                         
     3  2  2.50      -559.8710  10.0000                                         
     4  0  0.50      -164.3522   2.0000                                         
     4  1  1.50      -114.3756   6.0000                                         
     4  2  2.50       -41.6483  10.0000                                         
     5  0  0.50       -15.1072   2.0000                                         
     5  1  0.50        -5.9526   4.0000                                         
     5  2  1.50        -5.4423   0.0000                                         
     4  3  2.50        -5.4423   0.0000                                         
   Description                                                                  
     l       E           TYP  RCUT    TYP  RCUT                                 
     0    -15.1072389     23  2.300                                             
     0    -16.4678215     23  2.300                                             
     1     -5.9526306     23  2.300                                             
     1     -2.4873968     23  2.300                                             
     2     -5.4423304     23  2.300                                             
     3     -1.3605826     23  2.300                                             
  local pseudopotential read in
  partial core-charges read in
  partial kinetic energy density read in
  atomic valenz-charges read in
  non local Contribution for L=           0  read in
    real space projection operators read in
  non local Contribution for L=           0  read in
    real space projection operators read in
  non local Contribution for L=           1  read in
    real space projection operators read in
  non local Contribution for L=           1  read in
    real space projection operators read in
  non local Contribution for L=           2  read in
    real space projection operators read in
    PAW grid and wavefunctions read in
 
   number of l-projection  operators is LMAX  =           5
   number of lm-projection operators is LMMAX =          13
 

 ----------------------------------------------------------------------------- 
|                                                                             |
|  ADVICE TO THIS USER RUNNING 'VASP/VAMP'   (HEAR YOUR MASTER'S VOICE ...):  |
|                                                                             |
|      You have a (more or less) 'large supercell' and for larger cells       |
|      it might be more efficient to use real space projection opertators     |
|      So try LREAL= Auto  in the INCAR   file.                               |
|      Mind:          For very  accurate calculation you might also keep the  |
|      reciprocal projection scheme          (i.e. LREAL=.FALSE.)             |
|                                                                             |
 ----------------------------------------------------------------------------- 

  PAW_PBE Cd 06Sep2000                  :
 energy of atom  1       EATOM=-1293.1815
 kinetic energy error for atom=    0.0084 (will be added to EATOM!!)
  PAW_PBE Te 08Apr2002                  :
 energy of atom  2       EATOM= -223.2721
 kinetic energy error for atom=    0.0008 (will be added to EATOM!!)
 
 
 POSCAR: Cd33 Te32                               
  positions in direct lattice
  No initial velocities read in
 exchange correlation table for  LEXCH =        8
   RHO(1)=    0.500       N(1)  =     2000
   RHO(2)=  100.500       N(2)  =     4000
 


--------------------------------------------------------------------------------------------------------


 ion  position               nearest neighbor table
   1  0.004  0.996  0.004-  44 2.79  35 2.93  54 2.93  65 2.93  33 2.94
   2  0.001  0.999  0.497-  55 2.82  34 2.82  64 2.82  45 2.84
   3  0.001  0.503  0.001-  63 2.82  56 2.82  37 2.82  42 2.84
   4  1.000  0.501  0.499-  57 2.82  62 2.82  36 2.82  43 2.84
   5  0.497  0.999  0.001-  39 2.82  50 2.82  61 2.82  48 2.84
   6  0.499  0.000  0.499-  38 2.82  51 2.82  60 2.82  49 2.84
   7  0.499  0.501  1.000-  41 2.82  59 2.82  52 2.82  46 2.84
   8  0.501  0.499  0.501-  47 2.82  53 2.83  40 2.83  58 2.83
   9  0.001  0.251  0.253-  54 2.82  34 2.82  62 2.82  42 2.84
  10  0.004  0.254  0.746-  43 2.79  35 2.93  55 2.93  63 2.93  33 2.94
  11  1.000  0.749  0.251-  56 2.82  64 2.82  36 2.82  44 2.84
  12  0.001  0.747  0.749-  65 2.82  57 2.82  37 2.82  45 2.84
  13  0.499  0.250  0.251-  38 2.82  50 2.82  58 2.82  46 2.84
  14  0.497  0.251  0.749-  39 2.82  51 2.82  59 2.82  47 2.84
  15  0.501  0.751  0.249-  48 2.82  52 2.83  40 2.83  60 2.83
  16  0.499  0.749  0.750-  41 2.82  61 2.82  53 2.82  49 2.84
  17  0.251  0.000  0.251-  34 2.82  50 2.82  60 2.82  44 2.84
  18  0.253  0.999  0.749-  35 2.82  51 2.82  61 2.82  45 2.84
  19  0.249  0.499  0.249-  42 2.82  52 2.83  36 2.83  58 2.83
  20  0.251  0.501  0.750-  37 2.82  59 2.82  53 2.82  43 2.84
  21  0.749  0.999  0.253-  54 2.82  38 2.82  64 2.82  48 2.84
  22  0.746  0.996  0.746-  49 2.79  39 2.93  55 2.93  65 2.93  33 2.94
  23  0.750  0.501  0.251-  62 2.82  56 2.82  40 2.82  46 2.84
  24  0.749  0.503  0.749-  63 2.82  57 2.82  41 2.82  47 2.84
  25  0.253  0.251  0.001-  35 2.82  50 2.82  59 2.82  42 2.84
  26  0.251  0.250  0.499-  34 2.82  51 2.82  58 2.82  43 2.84
  27  0.251  0.749  1.000-  37 2.82  61 2.82  52 2.82  44 2.84
  28  0.249  0.751  0.501-  45 2.82  53 2.83  36 2.83  60 2.83
  29  0.746  0.254  0.004-  46 2.79  39 2.93  54 2.93  63 2.93  33 2.94
  30  0.749  0.251  0.497-  55 2.82  38 2.82  62 2.82  47 2.84
  31  0.749  0.747  0.001-  65 2.82  56 2.82  41 2.82  48 2.84
  32  0.750  0.749  0.499-  57 2.82  64 2.82  40 2.82  49 2.84
  33  0.875  0.125  0.875-   1 2.94  10 2.94  22 2.94  29 2.94  35 3.37  39 3.37  54 3.37  55 3.37
                            63 3.37  65 3.37
  34  0.127  0.125  0.375-  17 2.82  26 2.82   2 2.82   9 2.82
  35  0.133  0.125  0.875-  18 2.82  25 2.82  10 2.93   1 2.93  33 3.37
  36  0.126  0.625  0.375-   4 2.82  11 2.82  19 2.83  28 2.83
  37  0.127  0.625  0.875-  20 2.82  27 2.82   3 2.82  12 2.82
  38  0.623  0.125  0.375-  13 2.82   6 2.82  21 2.82  30 2.82
  39  0.617  0.125  0.875-  14 2.82   5 2.82  22 2.93  29 2.93  33 3.37
  40  0.624  0.625  0.375-  23 2.82  32 2.82   8 2.83  15 2.83
  41  0.623  0.625  0.875-   7 2.82  16 2.82  31 2.82  24 2.82
  42  0.125  0.375  0.125-  19 2.82   9 2.84  25 2.84   3 2.84
  43  0.127  0.377  0.623-  10 2.79   4 2.84  20 2.84  26 2.84
  44  0.127  0.873  0.127-   1 2.79  11 2.84  17 2.84  27 2.84
  45  0.125  0.875  0.625-  28 2.82  18 2.84   2 2.84  12 2.84
  46  0.623  0.377  0.127-  29 2.79  13 2.84  23 2.84   7 2.84
  47  0.625  0.375  0.625-   8 2.82  14 2.84  24 2.84  30 2.84
  48  0.625  0.875  0.125-  15 2.82  21 2.84   5 2.84  31 2.84
  49  0.623  0.873  0.623-  22 2.79  32 2.84   6 2.84  16 2.84
  50  0.375  0.125  0.127-  17 2.82  13 2.82   5 2.82  25 2.82
  51  0.375  0.125  0.623-   6 2.82  26 2.82  18 2.82  14 2.82
  52  0.375  0.625  0.126-   7 2.82  27 2.82  19 2.83  15 2.83
  53  0.375  0.625  0.624-  16 2.82  20 2.82   8 2.83  28 2.83
  54  0.875  0.125  0.133-   9 2.82  21 2.82   1 2.93  29 2.93  33 3.37
  55  0.875  0.125  0.617-  30 2.82   2 2.82  22 2.93  10 2.93  33 3.37
  56  0.875  0.625  0.127-  11 2.82  23 2.82   3 2.82  31 2.82
  57  0.875  0.625  0.623-   4 2.82  32 2.82  12 2.82  24 2.82
  58  0.375  0.376  0.375-  26 2.82  13 2.82  19 2.83   8 2.83
  59  0.375  0.377  0.875-   7 2.82  20 2.82  14 2.82  25 2.82
  60  0.375  0.874  0.375-   6 2.82  17 2.82  15 2.83  28 2.83
  61  0.375  0.873  0.875-  16 2.82  27 2.82   5 2.82  18 2.82
  62  0.875  0.377  0.375-   4 2.82  23 2.82   9 2.82  30 2.82
  63  0.875  0.383  0.875-  24 2.82   3 2.82  10 2.93  29 2.93  33 3.37
  64  0.875  0.873  0.375-  11 2.82  32 2.82   2 2.82  21 2.82
  65  0.875  0.867  0.875-  12 2.82  31 2.82   1 2.93  22 2.93  33 3.37
 

IMPORTANT INFORMATION: All symmetrisations will be switched off!
NOSYMM: (Re-)initialisation of all symmetry stuff for point group C_1.

 
 
 KPOINTS: Automatically generated mesh            
  k-points in reciprocal lattice
Space group operators:
 irot       det(A)        alpha          n_x          n_y          n_z        tau_x        tau_y        tau_z
    1     1.000000     0.000000     1.000000     0.000000     0.000000     0.000000     0.000000     0.000000

 ----------------------------------------------------------------------------- 
|                                                                             |
|           W    W    AA    RRRRR   N    N  II  N    N   GGGG   !!!           |
|           W    W   A  A   R    R  NN   N  II  NN   N  G    G  !!!           |
|           W    W  A    A  R    R  N N  N  II  N N  N  G       !!!           |
|           W WW W  AAAAAA  RRRRR   N  N N  II  N  N N  G  GGG   !            |
|           WW  WW  A    A  R   R   N   NN  II  N   NN  G    G                |
|           W    W  A    A  R    R  N    N  II  N    N   GGGG   !!!           |
|                                                                             |
|      Your generating k-point grid is not commensurate to the symmetry       |
|      of the lattice.  This can cause   slow convergence with respect        |
|      to k-points for HF type calculations                                   |
|      suggested SOLUTIONS:                                                   |
|       ) if not already the case, use automatic k-point generation           |
|       ) shift your grid to Gamma (G) (e.g. required for hex or fcc lattice) |
|                                                                             |
 ----------------------------------------------------------------------------- 

 
 Subroutine IBZKPT_HF returns following result:
 ==============================================
 
 Found      8 k-points in 1st BZ
 the following      8 k-points will be used (e.g. in the exchange kernel)
 Following reciprocal coordinates:   # in IRBZ
  0.000000  0.000000  0.000000    0.12500000   1 t-inv F
  0.500000  0.000000  0.000000    0.12500000   2 t-inv F
  0.000000  0.500000  0.000000    0.12500000   3 t-inv F
  0.500000  0.500000  0.000000    0.12500000   4 t-inv F
  0.000000  0.000000  0.500000    0.12500000   5 t-inv F
  0.500000  0.000000  0.500000    0.12500000   6 t-inv F
  0.000000  0.500000  0.500000    0.12500000   7 t-inv F
  0.500000  0.500000  0.500000    0.12500000   8 t-inv F


--------------------------------------------------------------------------------------------------------




 Dimension of arrays:
   k-points           NKPTS =      8   k-points in BZ     NKDIM =      8   number of bands    NBANDS=    776
   number of dos      NEDOS =   2000   number of ions     NIONS =     65
   non local maximal  LDIM  =      6   non local SUM 2l+1 LMDIM =     18
   total plane-waves  NPLWV = 884736
   max r-space proj   IRMAX =      1   max aug-charges    IRDMAX= 183854
   dimension x,y,z NGX =    96 NGY =   96 NGZ =   96
   dimension x,y,z NGXF=   192 NGYF=  192 NGZF=  192
   support grid    NGXF=   384 NGYF=  384 NGZF=  384
   ions per type =              33  32
   NGX,Y,Z   is equivalent  to a cutoff of  12.20, 12.20, 12.20 a.u.
   NGXF,Y,Z  is equivalent  to a cutoff of  24.39, 24.39, 24.39 a.u.

 SYSTEM =  unknown system                          
 POSCAR =  Cd33 Te32                               

 Startparameter for this run:
   NWRITE =      2    write-flag & timer
   PREC   = accura    normal or accurate (medium, high low for compatibility)
   ISTART =      0    job   : 0-new  1-cont  2-samecut
   ICHARG =      1    charge: 1-file 2-atom 10-const
   ISPIN  =      1    spin polarized calculation?
   LNONCOLLINEAR =      T non collinear calculations
   LSORBIT =      T    spin-orbit coupling
   INIWAV =      1    electr: 0-lowe 1-rand  2-diag
   LASPH  =      T    aspherical Exc in radial PAW
   METAGGA=      F    non-selfconsistent MetaGGA calc.

 Electronic Relaxation 1
   ENCUT  =  450.0 eV  33.07 Ry    5.75 a.u.  22.64 22.64 22.64*2*pi/ulx,y,z
   ENINI  =  450.0     initial cutoff
   ENAUG  =  456.1 eV  augmentation charge cutoff
   NELM   =      6;   NELMIN=  2; NELMDL= -5     # of ELM steps 
   EDIFF  = 0.1E-05   stopping-criterion for ELM
   LREAL  =      F    real-space projection
   NLSPLINE    = F    spline interpolate recip. space projectors
   LCOMPAT=      F    compatible to vasp.4.4
   GGA_COMPAT  = T    GGA compatible to vasp.4.4-vasp.4.6
   LMAXPAW     = -100 max onsite density
   LMAXMIX     =    2 max onsite mixed and CHGCAR
   VOSKOWN=      0    Vosko Wilk Nusair interpolation
   ROPT   =    0.00000   0.00000
 Ionic relaxation
   EDIFFG = -.1E-01   stopping-criterion for IOM
   NSW    =      0    number of steps for IOM
   NBLOCK =      1;   KBLOCK =      1    inner block; outer block 
   IBRION =     -1    ionic relax: 0-MD 1-quasi-New 2-CG
   NFREE  =      0    steps in history (QN), initial steepest desc. (CG)
   ISIF   =      2    stress and relaxation
   IWAVPR =     10    prediction:  0-non 1-charg 2-wave 3-comb
   ISYM   =      0    0-nonsym 1-usesym 2-fastsym
   LCORR  =      T    Harris-Foulkes like correction to forces

   POTIM  = 0.5000    time-step for ionic-motion
   TEIN   =    0.0    initial temperature
   TEBEG  =    0.0;   TEEND  =   0.0 temperature during run
   SMASS  =  -3.00    Nose mass-parameter (am)
   estimated Nose-frequenzy (Omega)   =  0.10E-29 period in steps =****** mass=  -0.391E-26a.u.
   SCALEE = 1.0000    scale energy and forces
   NPACO  =    256;   APACO  = 16.0  distance and # of slots for P.C.
   PSTRESS=    0.0 pullay stress

  Mass of Ions in am
   POMASS = 112.41127.60
  Ionic Valenz
   ZVAL   =  12.00  6.00
  Atomic Wigner-Seitz radii
   RWIGS  =  -1.00 -1.00
  virtual crystal weights 
   VCA    =   1.00  1.00
   NELECT =     588.0000    total number of electrons
   NUPDOWN=      -1.0000    fix difference up-down

 DOS related values:
   EMIN   =  10.00;   EMAX   =-10.00  energy-range for DOS
   EFERMI =   0.00
   ISMEAR =     0;   SIGMA  =   0.05  broadening in eV -4-tet -1-fermi 0-gaus

 Electronic relaxation 2 (details)
   IALGO  =     58    algorithm
   LDIAG  =      T    sub-space diagonalisation (order eigenvalues)
   LSUBROT=      F    optimize rotation matrix (better conditioning)
   TURBO    =      0    0=normal 1=particle mesh
   IRESTART =      0    0=no restart 2=restart with 2 vectors
   NREBOOT  =      0    no. of reboots
   NMIN     =      0    reboot dimension
   EREF     =   0.00    reference energy to select bands
   IMIX   =      4    mixing-type and parameters
     AMIX     =   0.40;   BMIX     =  1.00
     AMIX_MAG =   1.60;   BMIX_MAG =  1.00
     AMIN     =   0.10
     WC   =   100.;   INIMIX=   1;  MIXPRE=   1;  MAXMIX= -45

 Intra band minimization:
   WEIMIN = 0.0000     energy-eigenvalue tresh-hold
   EBREAK =  0.32E-09  absolut break condition
   DEPER  =   0.30     relativ break condition  

   TIME   =   0.40     timestep for ELM

  volume/ion in A,a.u.               =      34.48       232.69
  Fermi-wavevector in a.u.,A,eV,Ry     =   1.048017  1.980464 14.943809  1.098339
  Thomas-Fermi vector in A             =   2.182921
 
 Write flags
   LWAVE        =      T    write WAVECAR
   LDOWNSAMPLE  =      F    k-point downsampling of WAVECAR
   LCHARG       =      T    write CHGCAR
   LVTOT        =      F    write LOCPOT, total local potential
   LVHAR        =      T    write LOCPOT, Hartree potential only
   LELF         =      F    write electronic localiz. function (ELF)
   LORBIT       =     11    0 simple, 1 ext, 2 COOP (PROOUT), +10 PAW based schemes


 Dipole corrections
   LMONO  =      F    monopole corrections only (constant potential shift)
   LDIPOL =      F    correct potential (dipole corrections)
   IDIPOL =      0    1-x, 2-y, 3-z, 4-all directions 
   EPSILON=  1.0000000 bulk dielectric constant

 Exchange correlation treatment:
   GGA     =    --    GGA type
   LEXCH   =     8    internal setting for exchange type
   VOSKOWN=      0    Vosko Wilk Nusair interpolation
   EXXOEP  =     0    0=HF, 1=EXX-LHF (local Hartree Fock) 2=EXX OEP
   LHFCALC =     T    Hartree Fock is set to
   LSYMGRAD=     F    symmetrize gradient (conserves proper symmetry)
   PRECFOCK=fast      Normal, Fast or Accurate (Low or Medium for compatibility)
   LRHFCALC=     F    long range Hartree Fock
   LRSCOR  =     F    long range correlation only (use DFT for short range part)
   LTHOMAS =     F    Thomas Fermi screening in HF
   LMODELHF=     F    short range full HF, long range fraction AEXX
   ENCUT4O =  -1.0   cutoff for four orbital integrals eV
   LMAXFOCK=     4    L truncation for augmentation on plane wave grid
   LMAXFOCKAE=  -1    L truncation for all-electron charge restoration on plane wave grid
   NMAXFOCKAE=   1    number of basis functions for all-electron charge restoration
   LFOCKAEDFT=     F  apply the AE augmentation even for DFT
   NKREDX  =     1    reduce k-point grid by
   NKREDY  =     1    reduce k-point grid by
   NKREDZ  =     1    reduce k-point grid by
   SHIFTRED=     F    shift reduced grid of Gamma
   HFKIDENT=     F    idential grid for each k-point
   ODDONLY =     F    use only odd q-grid points
   EVENONLY=     F    use only even q-grid points
   HFALPHA =   -1.0000 decay constant for conv. correction
   MCALPHA =    0.0000 extent of test-charge in conv. correction in multipole expansion
   AEXX    =    0.2500 exact exchange contribution
   HFSCREEN=    0.2000 screening length (either q_TF or 0.3 A-1)
   HFSCREENC=   0.2000 screening length for correlation (either q_TF or 0.3 A-1)
   HFRCUT  =    0.0000 spherical cutoff for potential kernel
   ALDAX   =    0.7500 LDA exchange part
   AGGAX   =    0.7500 GGA exchange part
   ALDAC   =    1.0000 LDA correlation
   AGGAC   =    1.0000 GGA correlation
   ENCUTFOCK=  -1.0 apply spherical cutoff to Coloumb kernel
   NBANDSGWLOW=     1    first orbital included in HF term
   NBLOCK_FOCK=    64    blocking factor in FOCK_ACC
 Linear response parameters
   LEPSILON=     F    determine dielectric tensor
   LRPA    =     F    only Hartree local field effects (RPA)
   LNABLA  =     F    use nabla operator in PAW spheres
   LVEL    =     F    velocity operator in full k-point grid
   LINTERFAST=   F  fast interpolation
   KINTER  =     0    interpolate to denser k-point grid
   CSHIFT  =0.1000    complex shift for real part using Kramers Kronig
   OMEGAMAX=  -1.0    maximum frequency
   DEG_THRESHOLD= 0.2000000E-02 threshold for treating states as degnerate
   RTIME   =   -0.100 relaxation time in fs
  (WPLASMAI=    0.000 imaginary part of plasma frequency in eV, 0.658/RTIME)
   DFIELD  = 0.0000000 0.0000000 0.0000000 field for delta impulse in time
 
 Orbital magnetization related:
   ORBITALMAG=     F  switch on orbital magnetization
   LCHIMAG   =     F  perturbation theory with respect to B field
   DQ        =  0.001000  dq finite difference perturbation B field
   LLRAUG    =     F  two centre corrections for induced B field



--------------------------------------------------------------------------------------------------------


 Static calculation
 charge density and potential will be updated during run
 non collinear spin polarized calculation
 Conjugate gradient for all bands (Freysoldt, et al. PRB 79, 241103 (2009))
 preconditioned conjugated gradient                                        
 perform sub-space diagonalisation
    before iterative eigenvector-optimisation
 modified Broyden-mixing scheme, WC =      100.0
 initial mixing is a Kerker type mixing with AMIX =  0.4000 and BMIX =      1.0000
 Hartree-type preconditioning will be used
 using additional bands          482
 reciprocal scheme for non local part
 use partial core corrections
 no Harris-corrections to forces 
 use gradient corrections 
 use of overlap-Matrix (Vanderbilt PP)
 Gauss-broadening in eV      SIGMA  =   0.05


--------------------------------------------------------------------------------------------------------


  energy-cutoff  :      450.00
  volume of cell :     2241.29
      direct lattice vectors                 reciprocal lattice vectors
    13.086768000  0.000000000  0.000000000     0.076413061  0.000000000  0.000000000
     0.000000000 13.086768000  0.000000000     0.000000000  0.076413061  0.000000000
     0.000000000  0.000000000 13.086768000     0.000000000  0.000000000  0.076413061

  length of vectors
    13.086768000 13.086768000 13.086768000     0.076413061  0.076413061  0.076413061


 
 k-points in units of 2pi/SCALE and weight: Automatically generated mesh            
   0.00000000  0.00000000  0.00000000       0.125
   0.03820653  0.00000000  0.00000000       0.125
   0.00000000  0.03820653  0.00000000       0.125
   0.03820653  0.03820653  0.00000000       0.125
   0.00000000  0.00000000  0.03820653       0.125
   0.03820653  0.00000000  0.03820653       0.125
   0.00000000  0.03820653  0.03820653       0.125
   0.03820653  0.03820653  0.03820653       0.125
 
 k-points in reciprocal lattice and weights: Automatically generated mesh            
   0.00000000  0.00000000  0.00000000       0.125
   0.50000000  0.00000000  0.00000000       0.125
   0.00000000  0.50000000  0.00000000       0.125
   0.50000000  0.50000000  0.00000000       0.125
   0.00000000  0.00000000  0.50000000       0.125
   0.50000000  0.00000000  0.50000000       0.125
   0.00000000  0.50000000  0.50000000       0.125
   0.50000000  0.50000000  0.50000000       0.125
 
 position of ions in fractional coordinates (direct lattice) 
   0.00448500  0.99551500  0.00448500
   0.00124700  0.99875300  0.49695900
   0.00124700  0.50304100  0.00124700
   0.99962500  0.50121800  0.49878200
   0.49695900  0.99875300  0.00124700
   0.49878100  0.00037500  0.49878100
   0.49878100  0.50121900  0.99962500
   0.50052800  0.49947200  0.50052800
   0.00124700  0.25124700  0.25304000
   0.00448600  0.25448500  0.74551500
   0.99962500  0.74878200  0.25121800
   0.00124700  0.74695900  0.74875300
   0.49878200  0.24962500  0.25121900
   0.49696000  0.25124700  0.74875300
   0.50052800  0.75052800  0.24947200
   0.49878100  0.74878100  0.75037500
   0.25121900  0.00037500  0.25121900
   0.25304000  0.99875300  0.74875300
   0.24947200  0.49947200  0.24947200
   0.25121900  0.50121900  0.75037500
   0.74875300  0.99875300  0.25304000
   0.74551400  0.99551500  0.74551500
   0.75037500  0.50121900  0.25121900
   0.74875300  0.50304000  0.74875300
   0.25304000  0.25124700  0.00124700
   0.25121900  0.24962500  0.49878100
   0.25121900  0.74878100  0.99962500
   0.24947200  0.75052800  0.50052800
   0.74551400  0.25448500  0.00448500
   0.74875300  0.25124700  0.49696000
   0.74875300  0.74695900  0.00124700
   0.75037500  0.74878200  0.49878200
   0.87500000  0.12500000  0.87500000
   0.12665600  0.12500000  0.37500000
   0.13277900  0.12500000  0.87500000
   0.12589200  0.62500000  0.37500000
   0.12665600  0.62500000  0.87500000
   0.62334400  0.12500000  0.37500000
   0.61722100  0.12500000  0.87500000
   0.62410800  0.62500000  0.37500000
   0.62334400  0.62500000  0.87500000
   0.12484800  0.37484800  0.12484800
   0.12748800  0.37748800  0.62251200
   0.12748800  0.87251200  0.12748800
   0.12484800  0.87515200  0.62515200
   0.62251200  0.37748800  0.12748800
   0.62515200  0.37484800  0.62515200
   0.62515200  0.87515200  0.12484800
   0.62251200  0.87251200  0.62251200
   0.37500000  0.12500000  0.12665600
   0.37500000  0.12500000  0.62334400
   0.37500000  0.62500000  0.12589200
   0.37500000  0.62500000  0.62410800
   0.87500000  0.12500000  0.13277900
   0.87500000  0.12500000  0.61722100
   0.87500000  0.62500000  0.12665600
   0.87500000  0.62500000  0.62334400
   0.37500000  0.37589200  0.37500000
   0.37500000  0.37665600  0.87500000
   0.37500000  0.87410800  0.37500000
   0.37500000  0.87334400  0.87500000
   0.87500000  0.37665600  0.37500000
   0.87500000  0.38277900  0.87500000
   0.87500000  0.87334400  0.37500000
   0.87500000  0.86722100  0.87500000
 
 position of ions in cartesian coordinates  (Angst):
   0.05869415 13.02807385  0.05869415
   0.01631920 13.07044880  6.50358714
   0.01631920  6.58318086  0.01631920
  13.08186046  6.55932368  6.52744432
   6.50358714 13.07044880  0.01631920
   6.52743123  0.00490754  6.52743123
   6.52743123  6.55933677 13.08186046
   6.55029381  6.53647419  6.55029381
   0.01631920  3.28801120  3.31147577
   0.05870724  3.33038615  9.75638185
  13.08186046  9.79913632  3.28763168
   0.01631920  9.77527914  9.79875680
   6.52744432  3.26678446  3.28764477
   6.50360023  3.28801120  9.79875680
   6.55029381  9.82198581  3.26478219
   6.52743123  9.79912323  9.81998354
   3.28764477  0.00490754  3.28764477
   3.31147577 13.07044880  9.79875680
   3.26478219  6.53647419  3.26478219
   3.28764477  6.55933677  9.81998354
   9.79875680 13.07044880  3.31147577
   9.75636876 13.02807385  9.75638185
   9.81998354  6.55933677  3.28764477
   9.79875680  6.58316777  9.79875680
   3.31147577  3.28801120  0.01631920
   3.28764477  3.26678446  6.52743123
   3.28764477  9.79912323 13.08186046
   3.26478219  9.82198581  6.55029381
   9.75636876  3.33038615  0.05869415
   9.79875680  3.28801120  6.50360023
   9.79875680  9.77527914  0.01631920
   9.81998354  9.79913632  6.52744432
  11.45092200  1.63584600 11.45092200
   1.65751769  1.63584600  4.90753800
   1.73764797  1.63584600 11.45092200
   1.64751940  8.17923000  4.90753800
   1.65751769  8.17923000 11.45092200
   8.15755831  1.63584600  4.90753800
   8.07742803  1.63584600 11.45092200
   8.16755660  8.17923000  4.90753800
   8.15755831  8.17923000 11.45092200
   1.63385681  4.90554881  1.63385681
   1.66840588  4.94009788  8.14667012
   1.66840588 11.41836212  1.66840588
   1.63385681 11.45291119  8.18121919
   8.14667012  4.94009788  1.66840588
   8.18121919  4.90554881  8.18121919
   8.18121919 11.45291119  1.63385681
   8.14667012 11.41836212  8.14667012
   4.90753800  1.63584600  1.65751769
   4.90753800  1.63584600  8.15755831
   4.90753800  8.17923000  1.64751940
   4.90753800  8.17923000  8.16755660
  11.45092200  1.63584600  1.73764797
  11.45092200  1.63584600  8.07742803
  11.45092200  8.17923000  1.65751769
  11.45092200  8.17923000  8.15755831
   4.90753800  4.91921140  4.90753800
   4.90753800  4.92920969 11.45092200
   4.90753800 11.43924860  4.90753800
   4.90753800 11.42925031 11.45092200
  11.45092200  4.92920969  4.90753800
  11.45092200  5.00933997 11.45092200
  11.45092200 11.42925031  4.90753800
  11.45092200 11.34912003 11.45092200
 
 Euler angles ALPHA=     0.0000000  BETA=     0.0000000

 transformation matrix from SAXIS to cartesian coordinates
 ---------------------------------------------------------
     1.0000000 m_x     0.0000000 m_y     0.0000000 m_z
     0.0000000 m_x     1.0000000 m_y     0.0000000 m_z
     0.0000000 m_x     0.0000000 m_y     1.0000000 m_z

 transformation matrix from cartesian coordinates to SAXIS
 ---------------------------------------------------------
     1.0000000 m_x     0.0000000 m_y     0.0000000 m_z
     0.0000000 m_x     1.0000000 m_y     0.0000000 m_z
     0.0000000 m_x     0.0000000 m_y     1.0000000 m_z




--------------------------------------------------------------------------------------------------------


 k-point  1 :   0.0000 0.0000 0.0000  plane waves:   97002
 k-point  2 :   0.5000 0.0000 0.0000  plane waves:   97356
 k-point  3 :   0.0000 0.5000 0.0000  plane waves:   97356
 k-point  4 :   0.5000 0.5000 0.0000  plane waves:   96960
 k-point  5 :   0.0000 0.0000 0.5000  plane waves:   97356
 k-point  6 :   0.5000 0.0000 0.5000  plane waves:   96960
 k-point  7 :   0.0000 0.5000 0.5000  plane waves:   96960
 k-point  8 :   0.5000 0.5000 0.5000  plane waves:   96832

 maximum and minimum number of plane-waves per node :      2080     1972

 maximum number of plane-waves:     97356
 maximum index in each direction: 
   IXMAX=   22   IYMAX=   22   IZMAX=   22
   IXMIN=  -23   IYMIN=  -23   IZMIN=  -23


 parallel 3D FFT for wavefunctions:
    minimum data exchange during FFTs selected (reduces bandwidth)
 parallel 3D FFT for charge:
    minimum data exchange during FFTs selected (reduces bandwidth)


 FFT grid for exact exchange (Hartree Fock) 
  NGX = 48; NGY = 48; NGZ = 48

 
 Radii for the augmentation spheres in the non-local exchange
 for species   1 augmentation radius   1.444 (default was   1.070)
       energy cutoff for augmentation   1800.0
 for species   2 augmentation radius   1.606 (default was   1.190)
       energy cutoff for augmentation   1800.0

 real space projection operators:
  total allocation   :       9375.20 KBytes
  max/ min on nodes  :        232.62        141.21

 Maximum index for augmentation-charges in exchange           92
  SETUP_FOCK is finished

 total amount of memory used by VASP MPI-rank0   131075. kBytes
=======================================================================

   base      :      30000. kBytes
   nonl-proj :       3397. kBytes
   fftplans  :       6989. kBytes
   grid      :      11206. kBytes
   one-center:        124. kBytes
   HF        :        129. kBytes
   nonlr-proj:       1161. kBytes
   wavefun   :      78069. kBytes
 
     INWAV:  cpu time    0.0000: real time    0.0000
 Broyden mixing: mesh for mixing (old mesh)
   NGX = 45   NGY = 45   NGZ = 45
  (NGX  =192   NGY  =192   NGZ  =192)
  gives a total of  91125 points

 initial charge density was supplied:
 number of electron     588.0000006 magnetization       0.5418052      0.5417942      0.5418001
 keeping initial charge density in first step


--------------------------------------------------------------------------------------------------------


 Maximum index for augmentation-charges         3093 (set IRDMAX)


--------------------------------------------------------------------------------------------------------


 First call to EWALD:  gamma=   0.135
 Maximum number of real-space cells 3x 3x 3
 Maximum number of reciprocal cells 3x 3x 3

    FEWALD:  cpu time    0.0120: real time    0.0139


--------------------------------------- Iteration      1(   1)  ---------------------------------------


    POTLOK:  cpu time    0.4080: real time    0.4083
    SETDIJ:  cpu time    2.4202: real time    2.4219
    TRIAL :  cpu time   15.2930: real time   15.3012
    CORREC:  cpu time    0.0040: real time    0.0034
    --------------------------------------------
      LOOP:  cpu time   18.1651: real time   18.2622

 eigenvalue-minimisations  : 12768
 total energy-change (2. order) : 0.4588442E+04  (-0.2631755E+05)
 number of electron     588.0000006 magnetization       0.5418052      0.5417942      0.5418001
 augmentation part      588.0000006 magnetization       0.5418052      0.5417942      0.5418001

 Free energy of the ion-electron system (eV)
  ---------------------------------------------------
  alpha Z        PSCENC =      1642.45118531
  Ewald energy   TEWEN  =    -33940.17512420
  -Hartree energ DENC   =    -15676.68440366
  -exchange      EXHF   =         0.00000000
  -V(xc)+E(xc)   XCENC  =      -655.54004021
  PAW double counting   =    120128.70535078  -118040.26485614
  entropy T*S    EENTRO =        -0.02939293
  eigenvalues    EBANDS =      1380.55355747
  atomic energy  EATOM  =     49749.42546359
  ---------------------------------------------------
  free energy    TOTEN  =      4588.44174002 eV

  energy without entropy =     4588.47113295  energy(sigma->0) =     4588.45643648
  exchange ACFDT corr.  =         0.00000000  see jH, gK, PRB 81, 115126


--------------------------------------------------------------------------------------------------------




--------------------------------------- Iteration      1(   2)  ---------------------------------------


    TRIAL :  cpu time   15.5770: real time   15.5849
    CORREC:  cpu time    0.0040: real time    0.2620
    --------------------------------------------
      LOOP:  cpu time   15.5850: real time   15.8759

 eigenvalue-minimisations  : 13608
 total energy-change (2. order) :-0.3478764E+04  (-0.3359996E+04)
 number of electron     588.0000006 magnetization       0.5418052      0.5417942      0.5418001
 augmentation part      588.0000006 magnetization       0.5418052      0.5417942      0.5418001

 Free energy of the ion-electron system (eV)
  ---------------------------------------------------
  alpha Z        PSCENC =      1642.45118531
  Ewald energy   TEWEN  =    -33940.17512420
  -Hartree energ DENC   =    -15676.68440366
  -exchange      EXHF   =         0.00000000
  -V(xc)+E(xc)   XCENC  =      -655.54004021
  PAW double counting   =    120128.70535078  -118040.26485614
  entropy T*S    EENTRO =        -0.00088020
  eigenvalues    EBANDS =     -2098.23847793
  atomic energy  EATOM  =     49749.42546359
  ---------------------------------------------------
  free energy    TOTEN  =      1109.67821735 eV

  energy without entropy =     1109.67909754  energy(sigma->0) =     1109.67865744
  exchange ACFDT corr.  =         0.00000000  see jH, gK, PRB 81, 115126


--------------------------------------------------------------------------------------------------------




--------------------------------------- Iteration      1(   3)  ---------------------------------------


    TRIAL :  cpu time   16.0490: real time   16.0584
    CORREC:  cpu time    0.0040: real time    0.0039
    --------------------------------------------
      LOOP:  cpu time   16.0530: real time   16.0877

 eigenvalue-minimisations  : 14112
 total energy-change (2. order) :-0.2058469E+03  (-0.2034441E+03)
 number of electron     588.0000006 magnetization       0.5418052      0.5417942      0.5418001
 augmentation part      588.0000006 magnetization       0.5418052      0.5417942      0.5418001

 Free energy of the ion-electron system (eV)
  ---------------------------------------------------
  alpha Z        PSCENC =      1642.45118531
  Ewald energy   TEWEN  =    -33940.17512420
  -Hartree energ DENC   =    -15676.68440366
  -exchange      EXHF   =         0.00000000
  -V(xc)+E(xc)   XCENC  =      -655.54004021
  PAW double counting   =    120128.70535078  -118040.26485614
  entropy T*S    EENTRO =        -0.00813425
  eigenvalues    EBANDS =     -2304.07810112
  atomic energy  EATOM  =     49749.42546359
  ---------------------------------------------------
  free energy    TOTEN  =       903.83134010 eV

  energy without entropy =      903.83947435  energy(sigma->0) =      903.83540723
  exchange ACFDT corr.  =         0.00000000  see jH, gK, PRB 81, 115126


--------------------------------------------------------------------------------------------------------




--------------------------------------- Iteration      1(   4)  ---------------------------------------


    TRIAL :  cpu time   17.3491: real time   17.3600
    CORREC:  cpu time    0.0040: real time    0.0037
    --------------------------------------------
      LOOP:  cpu time   17.3571: real time   17.3932

 eigenvalue-minimisations  : 15704
 total energy-change (2. order) :-0.5252298E+01  (-0.5236306E+01)
 number of electron     588.0000006 magnetization       0.5418052      0.5417942      0.5418001
 augmentation part      588.0000006 magnetization       0.5418052      0.5417942      0.5418001

 Free energy of the ion-electron system (eV)
  ---------------------------------------------------
  alpha Z        PSCENC =      1642.45118531
  Ewald energy   TEWEN  =    -33940.17512420
  -Hartree energ DENC   =    -15676.68440366
  -exchange      EXHF   =         0.00000000
  -V(xc)+E(xc)   XCENC  =      -655.54004021
  PAW double counting   =    120128.70535078  -118040.26485614
  entropy T*S    EENTRO =        -0.00897463
  eigenvalues    EBANDS =     -2309.32955876
  atomic energy  EATOM  =     49749.42546359
  ---------------------------------------------------
  free energy    TOTEN  =       898.57904208 eV

  energy without entropy =      898.58801671  energy(sigma->0) =      898.58352940
  exchange ACFDT corr.  =         0.00000000  see jH, gK, PRB 81, 115126


--------------------------------------------------------------------------------------------------------




--------------------------------------- Iteration      1(   5)  ---------------------------------------


    TRIAL :  cpu time   17.0131: real time   17.0216
    CORREC:  cpu time    0.0040: real time    0.0040
    CHARGE:  cpu time    1.3921: real time    1.3936
    --------------------------------------------
      LOOP:  cpu time   18.4131: real time   18.4457

 eigenvalue-minimisations  : 15360
 total energy-change (2. order) :-0.8576123E-01  (-0.8556567E-01)
 number of electron     588.0000007 magnetization       0.0131035      0.0131276      0.0131017
 augmentation part      160.3961976 magnetization       0.0465735      0.0465438      0.0465552

 Free energy of the ion-electron system (eV)
  ---------------------------------------------------
  alpha Z        PSCENC =      1642.45118531
  Ewald energy   TEWEN  =    -33940.17512420
  -Hartree energ DENC   =    -15676.68440366
  -exchange      EXHF   =         0.00000000
  -V(xc)+E(xc)   XCENC  =      -655.54004021
  PAW double counting   =    120128.70535078  -118040.26485614
  entropy T*S    EENTRO =        -0.00899534
  eigenvalues    EBANDS =     -2309.41529929
  atomic energy  EATOM  =     49749.42546359
  ---------------------------------------------------
  free energy    TOTEN  =       898.49328085 eV

  energy without entropy =      898.50227619  energy(sigma->0) =      898.49777852
  exchange ACFDT corr.  =         0.00000000  see jH, gK, PRB 81, 115126


--------------------------------------------------------------------------------------------------------




--------------------------------------- Iteration      1(   6)  ---------------------------------------


    POTLOK:  cpu time    0.4080: real time    0.4070
    SETDIJ:  cpu time    2.4842: real time    2.4880
    TRIAL :  cpu time 1532.7238: real time 1533.6687
    CORREC:  cpu time 1547.5927: real time 1548.5491
    EDDIAG:  cpu time 1523.9552: real time 1524.8983
    CHARGE:  cpu time    1.4081: real time    1.4088
    --------------------------------------------
      LOOP:  cpu time 4608.5760: real time 4611.4350

 eigenvalue-minimisations  :     0
 total energy-change (2. order) :-0.1046914E+04  (-0.3985277E+02)
 number of electron     588.0000006 magnetization       0.0333848      0.0333122      0.0331563
 augmentation part      153.0562380 magnetization       0.0284497      0.0282318      0.0277263

 Free energy of the ion-electron system (eV)
  ---------------------------------------------------
  alpha Z        PSCENC =      1642.45118531
  Ewald energy   TEWEN  =    -33940.17512420
  -Hartree energ DENC   =    -17757.29531893
  -exchange      EXHF   =      1127.77075441
  -V(xc)+E(xc)   XCENC  =      -611.31623288
  PAW double counting   =    112311.88955213  -110331.68007491
  entropy T*S    EENTRO =        -0.00776763
  eigenvalues    EBANDS =     -2350.96416032
  atomic energy  EATOM  =     49749.42546359
  ---------------------------------------------------
  free energy    TOTEN  =      -148.42023257 eV

  energy without entropy =     -148.41246494  energy(sigma->0) =     -148.41634876
  exchange ACFDT corr.  =        -0.00152063  see jH, gK, PRB 81, 115126


--------------------------------------------------------------------------------------------------------


  average scaling for gradient   0.9878


 average (electrostatic) potential at core
  the test charge radii are     1.0698  1.1897
  (the norm of the test charge is              1.0000)
       1 -34.7437       2 -33.6953       3 -33.6952       4 -33.1979       5 -33.6956
       6 -33.1972       7 -33.1992       8 -32.7627       9 -33.6991      10 -34.7421
      11 -33.1989      12 -33.6932      13 -33.2018      14 -33.6952      15 -32.7638
      16 -33.1977      17 -33.1985      18 -33.6938      19 -32.7633      20 -33.1985
      21 -33.6960      22 -34.7361      23 -33.1976      24 -33.6933      25 -33.6979
      26 -33.2004      27 -33.1988      28 -32.7589      29 -34.7442      30 -33.6940
      31 -33.6950      32 -33.1972      33 -35.1458      34 -88.2603      35 -89.3550
      36 -87.6389      37 -88.2598      38 -88.2596      39 -89.3528      40 -87.6397
      41 -88.2578      42 -88.4760      43 -88.3324      44 -88.3324      45 -88.4720
      46 -88.3320      47 -88.4725      48 -88.4725      49 -88.3287      50 -88.2609
      51 -88.2575      52 -87.6397      53 -87.6397      54 -89.3544      55 -89.3517
      56 -88.2598      57 -88.2596      58 -87.6403      59 -88.2612      60 -87.6378
      61 -88.2581      62 -88.2596      63 -89.3541      64 -88.2589      65 -89.3511
 
 
 
 E-fermi :   4.2178     XC(G=0):  -7.2081     alpha+bet : -7.2837


 k-point     1 :       0.0000    0.0000    0.0000
  band No.  band energies     occupation 
      1     -11.2553      1.00000
      2     -11.2404      1.00000
      3     -11.1649      1.00000
      4     -11.1641      1.00000
      5     -11.1516      1.00000
      6     -11.1509      1.00000
      7     -11.1164      1.00000
      8     -11.1155      1.00000
      9     -11.1146      1.00000
     10     -11.1019      1.00000
     11     -11.1012      1.00000
     12     -11.1005      1.00000
     13     -10.5376      1.00000
     14     -10.5291      1.00000
     15     -10.4921      1.00000
     16     -10.4885      1.00000
     17     -10.4884      1.00000
     18     -10.4839      1.00000
     19     -10.4776      1.00000
     20     -10.4774      1.00000
     21     -10.4269      1.00000
     22     -10.4211      1.00000
     23     -10.4205      1.00000
     24     -10.4184      1.00000
     25     -10.4176      1.00000
     26     -10.4118      1.00000
     27     -10.4107      1.00000
     28     -10.4079      1.00000
     29     -10.3440      1.00000
     30     -10.3438      1.00000
     31     -10.3348      1.00000
     32     -10.3346      1.00000
     33     -10.3081      1.00000
     34     -10.3020      1.00000
     35     -10.2898      1.00000
     36     -10.2885      1.00000
     37     -10.2860      1.00000
     38     -10.2825      1.00000
     39     -10.2779      1.00000
     40     -10.2777      1.00000
     41     -10.2754      1.00000
     42     -10.2741      1.00000
     43     -10.2706      1.00000
     44     -10.2663      1.00000
     45     -10.2645      1.00000
     46     -10.2635      1.00000
     47     -10.2459      1.00000
     48     -10.2457      1.00000
     49     -10.2371      1.00000
     50     -10.2367      1.00000
     51     -10.2026      1.00000
     52     -10.1941      1.00000
     53     -10.0228      1.00000
     54     -10.0204      1.00000
     55     -10.0199      1.00000
     56     -10.0180      1.00000
     57      -9.8019      1.00000
     58      -9.7932      1.00000
     59      -9.7265      1.00000
     60      -9.7244      1.00000
     61      -9.7184      1.00000
     62      -9.7141      1.00000
     63      -9.7120      1.00000
     64      -9.7100      1.00000
     65      -9.6888      1.00000
     66      -9.6885      1.00000
     67      -9.6865      1.00000
     68      -9.6860      1.00000
     69      -9.6818      1.00000
     70      -9.6791      1.00000
     71      -9.6771      1.00000
     72      -9.6763      1.00000
     73      -9.6734      1.00000
     74      -9.6726      1.00000
     75      -9.6632      1.00000
     76      -9.6626      1.00000
     77      -9.6579      1.00000
     78      -9.6576      1.00000
     79      -9.6052      1.00000
     80      -9.6029      1.00000
     81      -9.5289      1.00000
     82      -9.5280      1.00000
     83      -9.5273      1.00000
     84      -9.5261      1.00000
     85      -9.2501      1.00000
     86      -9.2498      1.00000
     87      -9.2471      1.00000
     88      -9.2470      1.00000
     89      -9.1860      1.00000
     90      -9.1843      1.00000
     91      -9.0016      1.00000
     92      -9.0003      1.00000
     93      -8.9666      1.00000
     94      -8.9661      1.00000
     95      -8.9650      1.00000
     96      -8.9640      1.00000
     97      -8.9348      1.00000
     98      -8.9335      1.00000
     99      -8.9120      1.00000
    100      -8.9111      1.00000
    101      -8.9001      1.00000
    102      -8.9000      1.00000
    103      -8.8988      1.00000
    104      -8.8986      1.00000
    105      -8.8816      1.00000
    106      -8.8805      1.00000
    107      -8.8803      1.00000
    108      -8.8795      1.00000
    109      -8.8616      1.00000
    110      -8.8603      1.00000
    111      -8.8297      1.00000
    112      -8.8290      1.00000
    113      -8.8287      1.00000
    114      -8.8282      1.00000
    115      -8.8130      1.00000
    116      -8.8122      1.00000
    117      -8.8119      1.00000
    118      -8.8113      1.00000
    119      -8.8106      1.00000
    120      -8.8102      1.00000
    121      -8.7958      1.00000
    122      -8.7952      1.00000
    123      -8.7948      1.00000
    124      -8.7944      1.00000
    125      -8.7858      1.00000
    126      -8.7856      1.00000
    127      -8.7743      1.00000
    128      -8.7738      1.00000
    129      -8.7689      1.00000
    130      -8.7688      1.00000
    131      -8.7685      1.00000
    132      -8.7684      1.00000
    133      -8.7659      1.00000
    134      -8.7652      1.00000
    135      -8.7648      1.00000
    136      -8.7643      1.00000
    137      -8.7262      1.00000
    138      -8.7256      1.00000
    139      -8.7248      1.00000
    140      -8.7245      1.00000
    141      -8.7244      1.00000
    142      -8.7240      1.00000
    143      -8.6448      1.00000
    144      -8.6445      1.00000
    145      -8.6425      1.00000
    146      -8.6423      1.00000
    147      -8.6418      1.00000
    148      -8.6415      1.00000
    149      -8.6382      1.00000
    150      -8.6376      1.00000
    151      -8.6051      1.00000
    152      -8.6046      1.00000
    153      -8.6027      1.00000
    154      -8.6025      1.00000
    155      -8.5770      1.00000
    156      -8.5762      1.00000
    157      -8.5760      1.00000
    158      -8.5757      1.00000
    159      -8.5302      1.00000
    160      -8.5299      1.00000
    161      -8.5293      1.00000
    162      -8.5287      1.00000
    163      -8.3425      1.00000
    164      -8.3421      1.00000
    165      -8.3417      1.00000
    166      -8.3416      1.00000
    167      -8.3207      1.00000
    168      -8.3205      1.00000
    169      -8.3114      1.00000
    170      -8.3110      1.00000
    171      -8.3107      1.00000
    172      -8.3106      1.00000
    173      -8.3047      1.00000
    174      -8.3043      1.00000
    175      -8.3038      1.00000
    176      -8.3034      1.00000
    177      -8.3002      1.00000
    178      -8.3000      1.00000
    179      -8.2997      1.00000
    180      -8.2996      1.00000
    181      -8.2840      1.00000
    182      -8.2838      1.00000
    183      -8.2837      1.00000
    184      -8.2835      1.00000
    185      -8.2758      1.00000
    186      -8.2755      1.00000
    187      -8.2752      1.00000
    188      -8.2750      1.00000
    189      -8.2645      1.00000
    190      -8.2642      1.00000
    191      -8.2065      1.00000
    192      -8.2063      1.00000
    193      -8.2048      1.00000
    194      -8.2047      1.00000
    195      -8.2044      1.00000
    196      -8.2042      1.00000
    197      -8.1856      1.00000
    198      -8.1853      1.00000
    199      -8.1851      1.00000
    200      -8.1849      1.00000
    201      -8.1626      1.00000
    202      -8.1624      1.00000
    203      -8.1483      1.00000
    204      -8.1480      1.00000
    205      -8.1372      1.00000
    206      -8.1368      1.00000
    207      -8.1363      1.00000
    208      -8.1362      1.00000
    209      -8.1200      1.00000
    210      -8.1195      1.00000
    211      -8.1130      1.00000
    212      -8.1123      1.00000
    213      -8.1040      1.00000
    214      -8.1037      1.00000
    215      -8.1032      1.00000
    216      -8.1030      1.00000
    217      -8.1025      1.00000
    218      -8.1024      1.00000
    219      -8.0978      1.00000
    220      -8.0972      1.00000
    221      -8.0869      1.00000
    222      -8.0867      1.00000
    223      -8.0864      1.00000
    224      -8.0858      1.00000
    225      -8.0667      1.00000
    226      -8.0665      1.00000
    227      -8.0665      1.00000
    228      -8.0664      1.00000
    229      -8.0618      1.00000
    230      -8.0615      1.00000
    231      -8.0582      1.00000
    232      -8.0577      1.00000
    233      -8.0576      1.00000
    234      -8.0572      1.00000
    235      -8.0507      1.00000
    236      -8.0501      1.00000
    237      -8.0500      1.00000
    238      -8.0498      1.00000
    239      -8.0440      1.00000
    240      -8.0435      1.00000
    241      -8.0143      1.00000
    242      -8.0138      1.00000
    243      -8.0132      1.00000
    244      -8.0128      1.00000
    245      -7.9950      1.00000
    246      -7.9947      1.00000
    247      -7.9945      1.00000
    248      -7.9944      1.00000
    249      -7.9824      1.00000
    250      -7.9821      1.00000
    251      -7.9566      1.00000
    252      -7.9561      1.00000
    253      -7.9492      1.00000
    254      -7.9490      1.00000
    255      -7.9476      1.00000
    256      -7.9472      1.00000
    257      -7.9470      1.00000
    258      -7.9466      1.00000
    259      -7.9267      1.00000
    260      -7.9266      1.00000
    261      -7.9259      1.00000
    262      -7.9257      1.00000
    263      -7.9252      1.00000
    264      -7.9243      1.00000
    265      -7.9044      1.00000
    266      -7.9043      1.00000
    267      -7.9039      1.00000
    268      -7.9037      1.00000
    269      -7.8829      1.00000
    270      -7.8828      1.00000
    271      -7.8816      1.00000
    272      -7.8814      1.00000
    273      -7.8681      1.00000
    274      -7.8676      1.00000
    275      -7.8502      1.00000
    276      -7.8500      1.00000
    277      -7.8416      1.00000
    278      -7.8411      1.00000
    279      -7.8377      1.00000
    280      -7.8374      1.00000
    281      -7.8371      1.00000
    282      -7.8369      1.00000
    283      -7.8275      1.00000
    284      -7.8270      1.00000
    285      -7.8261      1.00000
    286      -7.8256      1.00000
    287      -7.7530      1.00000
    288      -7.7525      1.00000
    289      -7.7518      1.00000
    290      -7.7516      1.00000
    291      -7.7005      1.00000
    292      -7.7003      1.00000
    293      -7.7000      1.00000
    294      -7.6995      1.00000
    295      -7.6770      1.00000
    296      -7.6765      1.00000
    297      -7.6625      1.00000
    298      -7.6609      1.00000
    299      -7.6407      1.00000
    300      -7.6403      1.00000
    301      -7.6345      1.00000
    302      -7.6343      1.00000
    303      -7.6338      1.00000
    304      -7.6334      1.00000
    305      -7.6168      1.00000
    306      -7.6165      1.00000
    307      -7.5906      1.00000
    308      -7.5903      1.00000
    309      -7.5897      1.00000
    310      -7.5896      1.00000
    311      -7.5891      1.00000
    312      -7.5889      1.00000
    313      -7.5849      1.00000
    314      -7.5847      1.00000
    315      -7.5845      1.00000
    316      -7.5842      1.00000
    317      -7.5683      1.00000
    318      -7.5680      1.00000
    319      -7.5668      1.00000
    320      -7.5665      1.00000
    321      -7.5662      1.00000
    322      -7.5659      1.00000
    323      -7.5605      1.00000
    324      -7.5601      1.00000
    325      -7.5584      1.00000
    326      -7.5581      1.00000
    327      -7.5577      1.00000
    328      -7.5573      1.00000
    329      -7.5242      1.00000
    330      -7.5238      1.00000
    331      -7.5235      1.00000
    332      -7.5230      1.00000
    333      -7.4913      1.00000
    334      -7.4911      1.00000
    335      -7.4909      1.00000
    336      -7.4903      1.00000
    337      -7.4772      1.00000
    338      -7.4769      1.00000
    339      -7.4477      1.00000
    340      -7.4471      1.00000
    341      -7.4336      1.00000
    342      -7.4335      1.00000
    343      -7.4253      1.00000
    344      -7.4251      1.00000
    345      -7.4250      1.00000
    346      -7.4248      1.00000
    347      -7.3904      1.00000
    348      -7.3898      1.00000
    349      -7.3895      1.00000
    350      -7.3889      1.00000
    351      -7.3639      1.00000
    352      -7.3635      1.00000
    353      -7.3630      1.00000
    354      -7.3624      1.00000
    355      -7.3366      1.00000
    356      -7.3356      1.00000
    357      -7.2810      1.00000
    358      -7.2806      1.00000
    359      -7.2788      1.00000
    360      -7.2783      1.00000
    361      -7.2646      1.00000
    362      -7.2644      1.00000
    363      -7.2448      1.00000
    364      -7.2427      1.00000
    365      -7.2412      1.00000
    366      -7.2399      1.00000
    367      -7.2390      1.00000
    368      -7.2387      1.00000
    369      -7.1922      1.00000
    370      -7.1922      1.00000
    371      -7.1448      1.00000
    372      -7.1428      1.00000
    373      -7.1358      1.00000
    374      -7.1354      1.00000
    375      -7.1342      1.00000
    376      -7.1342      1.00000
    377      -7.1166      1.00000
    378      -7.1162      1.00000
    379      -7.0950      1.00000
    380      -7.0947      1.00000
    381      -7.0942      1.00000
    382      -7.0935      1.00000
    383      -7.0087      1.00000
    384      -7.0072      1.00000
    385      -6.9175      1.00000
    386      -6.9170      1.00000
    387      -6.9160      1.00000
    388      -6.9146      1.00000
    389      -6.9144      1.00000
    390      -6.9142      1.00000
    391      -6.7873      1.00000
    392      -6.7868      1.00000
    393      -6.7849      1.00000
    394      -6.7845      1.00000
    395      -4.3464      1.00000
    396      -4.3265      1.00000
    397      -3.5399      1.00000
    398      -3.5381      1.00000
    399      -3.5367      1.00000
    400      -3.5364      1.00000
    401      -3.4136      1.00000
    402      -3.4126      1.00000
    403      -3.2510      1.00000
    404      -3.2506      1.00000
    405      -3.2501      1.00000
    406      -3.2494      1.00000
    407      -3.2177      1.00000
    408      -3.2173      1.00000
    409      -3.0642      1.00000
    410      -3.0638      1.00000
    411      -2.9335      1.00000
    412      -2.9328      1.00000
    413      -2.9325      1.00000
    414      -2.9323      1.00000
    415      -2.7496      1.00000
    416      -2.7494      1.00000
    417      -2.7491      1.00000
    418      -2.7486      1.00000
    419      -2.7268      1.00000
    420      -2.7262      1.00000
    421      -2.5403      1.00000
    422      -2.5375      1.00000
    423      -2.5300      1.00000
    424      -2.5286      1.00000
    425      -2.4917      1.00000
    426      -2.4916      1.00000
    427      -2.4889      1.00000
    428      -2.4887      1.00000
    429      -2.3652      1.00000
    430      -2.3651      1.00000
    431      -2.3529      1.00000
    432      -2.3527      1.00000
    433      -2.3524      1.00000
    434      -2.3521      1.00000
    435      -2.3346      1.00000
    436      -2.3339      1.00000
    437      -2.3330      1.00000
    438      -2.3325      1.00000
    439      -2.1753      1.00000
    440      -2.1750      1.00000
    441      -2.1746      1.00000
    442      -2.1740      1.00000
    443      -2.1195      1.00000
    444      -2.1186      1.00000
    445      -1.5670      1.00000
    446      -1.5656      1.00000
    447      -1.5628      1.00000
    448      -1.5603      1.00000
    449      -1.4015      1.00000
    450      -1.3957      1.00000
    451      -1.3763      1.00000
    452      -1.3721      1.00000
    453      -1.3286      1.00000
    454      -1.3277      1.00000
    455      -1.3247      1.00000
    456      -1.3245      1.00000
    457      -1.3185      1.00000
    458      -1.3184      1.00000
    459      -1.3024      1.00000
    460      -1.2998      1.00000
    461      -1.2893      1.00000
    462      -1.2876      1.00000
    463      -1.2861      1.00000
    464      -1.2848      1.00000
    465      -1.1894      1.00000
    466      -1.1861      1.00000
    467      -1.1374      1.00000
    468      -1.1372      1.00000
    469      -1.1337      1.00000
    470      -1.1325      1.00000
    471      -0.9695      1.00000
    472      -0.9678      1.00000
    473      -0.9366      1.00000
    474      -0.9361      1.00000
    475      -0.9317      1.00000
    476      -0.9312      1.00000
    477      -0.8837      1.00000
    478      -0.8814      1.00000
    479      -0.8141      1.00000
    480      -0.8126      1.00000
    481      -0.8109      1.00000
    482      -0.8097      1.00000
    483      -0.7933      1.00000
    484      -0.7913      1.00000
    485      -0.7688      1.00000
    486      -0.7678      1.00000
    487      -0.7641      1.00000
    488      -0.7638      1.00000
    489      -0.7338      1.00000
    490      -0.7332      1.00000
    491      -0.7321      1.00000
    492      -0.7317      1.00000
    493      -0.6534      1.00000
    494      -0.6525      1.00000
    495      -0.6517      1.00000
    496      -0.6511      1.00000
    497      -0.6301      1.00000
    498      -0.6274      1.00000
    499      -0.4945      1.00000
    500      -0.4940      1.00000
    501      -0.4918      1.00000
    502      -0.4911      1.00000
    503      -0.4669      1.00000
    504      -0.4659      1.00000
    505      -0.4637      1.00000
    506      -0.4632      1.00000
    507      -0.4436      1.00000
    508      -0.4373      1.00000
    509      -0.4296      1.00000
    510      -0.4273      1.00000
    511      -0.2082      1.00000
    512      -0.2078      1.00000
    513      -0.2056      1.00000
    514      -0.2051      1.00000
    515      -0.1164      1.00000
    516      -0.1140      1.00000
    517       0.1443      1.00000
    518       0.1467      1.00000
    519       0.1499      1.00000
    520       0.1515      1.00000
    521       0.1521      1.00000
    522       0.1526      1.00000
    523       0.1673      1.00000
    524       0.1709      1.00000
    525       0.1955      1.00000
    526       0.1961      1.00000
    527       0.1990      1.00000
    528       0.1996      1.00000
    529       0.2292      1.00000
    530       0.2300      1.00000
    531       0.2346      1.00000
    532       0.2356      1.00000
    533       0.3093      1.00000
    534       0.3132      1.00000
    535       0.3846      1.00000
    536       0.3853      1.00000
    537       0.3857      1.00000
    538       0.3863      1.00000
    539       0.3871      1.00000
    540       0.3895      1.00000
    541       0.4684      1.00000
    542       0.4694      1.00000
    543       0.4725      1.00000
    544       0.4733      1.00000
    545       0.5473      1.00000
    546       0.5517      1.00000
    547       0.5938      1.00000
    548       0.5968      1.00000
    549       0.6223      1.00000
    550       0.6239      1.00000
    551       0.6241      1.00000
    552       0.6250      1.00000
    553       0.6568      1.00000
    554       0.6601      1.00000
    555       0.7096      1.00000
    556       0.7122      1.00000
    557       0.7133      1.00000
    558       0.7166      1.00000
    559       0.7167      1.00000
    560       0.7216      1.00000
    561       0.7605      1.00000
    562       0.7611      1.00000
    563       0.7639      1.00000
    564       0.7643      1.00000
    565       0.8082      1.00000
    566       0.8093      1.00000
    567       0.8101      1.00000
    568       0.8129      1.00000
    569       0.8207      1.00000
    570       0.8231      1.00000
    571       0.9005      1.00000
    572       0.9042      1.00000
    573       0.9416      1.00000
    574       0.9458      1.00000
    575       1.0925      1.00000
    576       1.0926      1.00000
    577       1.0944      1.00000
    578       1.0946      1.00000
    579       1.2252      1.00000
    580       1.2270      1.00000
    581       1.2297      1.00000
    582       1.2311      1.00000
    583       1.7841      1.00000
    584       1.7887      1.00000
    585       1.7931      1.00000
    586       1.7974      1.00000
    587       2.0919      1.00000
    588       2.1540      1.00000
    589       2.8999      0.31144
    590       2.9071      0.27401
    591       3.7434      0.00000
    592       3.7493      0.00000
    593       3.7522      0.00000
    594       3.7544      0.00000
    595       3.7554      0.00000
    596       3.7571      0.00000
    597       3.9514      0.00000
    598       3.9608      0.00000
    599       4.7668      0.00000
    600       4.7786      0.00000
    601       4.7873      0.00000
    602       4.7882      0.00000
    603       4.8289      0.00000
    604       4.8409      0.00000
    605       4.8475      0.00000
    606       4.8475      0.00000
    607       4.8481      0.00000
    608       4.8483      0.00000
    609       4.8585      0.00000
    610       4.8586      0.00000
    611       4.9100      0.00000
    612       4.9200      0.00000
    613       4.9233      0.00000
    614       4.9238      0.00000
    615       4.9246      0.00000
    616       4.9264      0.00000
    617       5.3123      0.00000
    618       5.3126      0.00000
    619       5.3341      0.00000
    620       5.3347      0.00000
    621       5.3349      0.00000
    622       5.3349      0.00000
    623       5.3371      0.00000
    624       5.3379      0.00000
    625       5.3460      0.00000
    626       5.3460      0.00000
    627       5.3563      0.00000
    628       5.3574      0.00000
    629       5.3728      0.00000
    630       5.3731      0.00000
    631       5.3745      0.00000
    632       5.3782      0.00000
    633       5.3818      0.00000
    634       5.3833      0.00000
    635       5.3978      0.00000
    636       5.4000      0.00000
    637       5.4030      0.00000
    638       5.4044      0.00000
    639       5.4046      0.00000
    640       5.4057      0.00000
    641       5.4337      0.00000
    642       5.4453      0.00000
    643       5.4566      0.00000
    644       5.4645      0.00000
    645       5.4664      0.00000
    646       5.4667      0.00000
    647       5.4681      0.00000
    648       5.4721      0.00000
    649       5.4721      0.00000
    650       5.4721      0.00000
    651       5.4836      0.00000
    652       5.4881      0.00000
    653       5.5223      0.00000
    654       5.5224      0.00000
    655       5.5396      0.00000
    656       5.5401      0.00000
    657       6.1379      0.00000
    658       6.1467      0.00000
    659       6.3220      0.00000
    660       6.3237      0.00000
    661       6.3245      0.00000
    662       6.3257      0.00000
    663       6.4523      0.00000
    664       6.4526      0.00000
    665       6.5538      0.00000
    666       6.5558      0.00000
    667       6.6236      0.00000
    668       6.6296      0.00000
    669       6.6302      0.00000
    670       6.6346      0.00000
    671       6.6351      0.00000
    672       6.6363      0.00000
    673       6.6701      0.00000
    674       6.6705      0.00000
    675       6.8149      0.00000
    676       6.8185      0.00000
    677       6.8282      0.00000
    678       6.8295      0.00000
    679       6.8656      0.00000
    680       6.8761      0.00000
    681       6.8770      0.00000
    682       6.8837      0.00000
    683       6.9536      0.00000
    684       6.9538      0.00000
    685       6.9576      0.00000
    686       6.9595      0.00000
    687       6.9650      0.00000
    688       6.9658      0.00000
    689       6.9757      0.00000
    690       6.9811      0.00000
    691       6.9866      0.00000
    692       6.9950      0.00000
    693       7.3870      0.00000
    694       7.3871      0.00000
    695       7.3877      0.00000
    696       7.3895      0.00000
    697       7.3907      0.00000
    698       7.3968      0.00000
    699       7.4011      0.00000
    700       7.4027      0.00000
    701       7.4050      0.00000
    702       7.4108      0.00000
    703       7.5559      0.00000
    704       7.5597      0.00000
    705       7.5620      0.00000
    706       7.5663      0.00000
    707       7.5714      0.00000
    708       7.5753      0.00000
    709       7.5756      0.00000
    710       7.5838      0.00000
    711       7.5843      0.00000
    712       7.5873      0.00000
    713       7.6070      0.00000
    714       7.6071      0.00000
    715       7.6412      0.00000
    716       7.6475      0.00000
    717       7.6536      0.00000
    718       7.6616      0.00000
    719       7.6824      0.00000
    720       7.6829      0.00000
    721       7.6889      0.00000
    722       7.6975      0.00000
    723       7.7002      0.00000
    724       7.7119      0.00000
    725       7.7214      0.00000
    726       7.7348      0.00000
    727       7.7495      0.00000
    728       7.7531      0.00000
    729       7.7542      0.00000
    730       7.7547      0.00000
    731       7.7553      0.00000
    732       7.7578      0.00000
    733       7.8227      0.00000
    734       7.8255      0.00000
    735       7.8293      0.00000
    736       7.8639      0.00000
    737       7.8641      0.00000
    738       7.8696      0.00000
    739       7.8809      0.00000
    740       7.8813      0.00000
    741       7.8824      0.00000
    742       7.8831      0.00000
    743       7.8906      0.00000
    744       7.8921      0.00000
    745       7.8973      0.00000
    746       7.8993      0.00000
    747       7.9071      0.00000
    748       7.9118      0.00000
    749       7.9341      0.00000
    750       7.9685      0.00000
    751       8.0193      0.00000
    752       8.0295      0.00000
    753       8.0620      0.00000
    754       8.0631      0.00000
    755       8.0970      0.00000
    756       8.1326      0.00000
    757       8.1433      0.00000
    758       8.1780      0.00000
    759       8.2013      0.00000
    760       8.2077      0.00000
    761       8.2119      0.00000
    762       8.2293      0.00000
    763       8.2325      0.00000
    764       8.2358      0.00000
    765       8.2415      0.00000
    766       8.2433      0.00000
    767       8.2471      0.00000
    768       8.2620      0.00000
    769       8.2795      0.00000
    770       8.2826      0.00000
    771       8.2844      0.00000
    772       8.2851      0.00000
    773       8.2981      0.00000
    774       8.3222      0.00000
    775       8.3696      0.00000
    776       8.4139      0.00000

 k-point     2 :       0.5000    0.0000    0.0000
  band No.  band energies     occupation 
      1     -11.2435      1.00000
      2     -11.2284      1.00000
      3     -11.1650      1.00000
      4     -11.1599      1.00000
      5     -11.1521      1.00000
      6     -11.1468      1.00000
      7     -11.1275      1.00000
      8     -11.1166      1.00000
      9     -11.1153      1.00000
     10     -11.1133      1.00000
     11     -11.1021      1.00000
     12     -11.1014      1.00000
     13     -10.5262      1.00000
     14     -10.5177      1.00000
     15     -10.5004      1.00000
     16     -10.4919      1.00000
     17     -10.4906      1.00000
     18     -10.4870      1.00000
     19     -10.4790      1.00000
     20     -10.4753      1.00000
     21     -10.4356      1.00000
     22     -10.4292      1.00000
     23     -10.4249      1.00000
     24     -10.4227      1.00000
     25     -10.4215      1.00000
     26     -10.4165      1.00000
     27     -10.4123      1.00000
     28     -10.4100      1.00000
     29     -10.3315      1.00000
     30     -10.3229      1.00000
     31     -10.3196      1.00000
     32     -10.3158      1.00000
     33     -10.3142      1.00000
     34     -10.3113      1.00000
     35     -10.3079      1.00000
     36     -10.3053      1.00000
     37     -10.2844      1.00000
     38     -10.2834      1.00000
     39     -10.2829      1.00000
     40     -10.2803      1.00000
     41     -10.2753      1.00000
     42     -10.2742      1.00000
     43     -10.2682      1.00000
     44     -10.2642      1.00000
     45     -10.2624      1.00000
     46     -10.2562      1.00000
     47     -10.2547      1.00000
     48     -10.2475      1.00000
     49     -10.2187      1.00000
     50     -10.2175      1.00000
     51     -10.2101      1.00000
     52     -10.2088      1.00000
     53     -10.0232      1.00000
     54     -10.0209      1.00000
     55     -10.0204      1.00000
     56     -10.0183      1.00000
     57      -9.8044      1.00000
     58      -9.7959      1.00000
     59      -9.7203      1.00000
     60      -9.7200      1.00000
     61      -9.7153      1.00000
     62      -9.7120      1.00000
     63      -9.7118      1.00000
     64      -9.7068      1.00000
     65      -9.6945      1.00000
     66      -9.6922      1.00000
     67      -9.6883      1.00000
     68      -9.6882      1.00000
     69      -9.6859      1.00000
     70      -9.6855      1.00000
     71      -9.6735      1.00000
     72      -9.6726      1.00000
     73      -9.6706      1.00000
     74      -9.6692      1.00000
     75      -9.6656      1.00000
     76      -9.6634      1.00000
     77      -9.6601      1.00000
     78      -9.6598      1.00000
     79      -9.6042      1.00000
     80      -9.6022      1.00000
     81      -9.5294      1.00000
     82      -9.5285      1.00000
     83      -9.5276      1.00000
     84      -9.5266      1.00000
     85      -9.2504      1.00000
     86      -9.2501      1.00000
     87      -9.2475      1.00000
     88      -9.2470      1.00000
     89      -9.1862      1.00000
     90      -9.1847      1.00000
     91      -9.0002      1.00000
     92      -8.9990      1.00000
     93      -8.9669      1.00000
     94      -8.9663      1.00000
     95      -8.9651      1.00000
     96      -8.9647      1.00000
     97      -8.9339      1.00000
     98      -8.9325      1.00000
     99      -8.9124      1.00000
    100      -8.9116      1.00000
    101      -8.9009      1.00000
    102      -8.9003      1.00000
    103      -8.8996      1.00000
    104      -8.8989      1.00000
    105      -8.8816      1.00000
[...]
 l=   3
     0.0000000     0.0000000     0.0000000     0.0000000     0.0000000     0.0000000     0.0000000
     0.0000000     0.0000000     0.0000000     0.0000000     0.0000000     0.0000000     0.0000000
     0.0000000     0.0000000     0.0000000     0.0000000     0.0000000     0.0000000     0.0000000
     0.0000000     0.0000000     0.0000000     0.0000000     0.0000000     0.0000000     0.0000000
     0.0000000     0.0000000     0.0000000     0.0000000     0.0000000     0.0000000     0.0000000
     0.0000000     0.0000000     0.0000000     0.0000000     0.0000000     0.0000000     0.0000000
     0.0000000     0.0000000     0.0000000     0.0000000     0.0000000     0.0000000     0.0000000

 Ion:   61  E_soc:     -0.1805590
 l=   1
     0.0000000    -0.0299825    -0.0300756
    -0.0299825     0.0000000    -0.0300012
    -0.0300756    -0.0300012     0.0000000
 l=   2
     0.0000000    -0.0000294     0.0000000    -0.0000287    -0.0000461
    -0.0000294     0.0000000    -0.0000328    -0.0000300    -0.0000108
     0.0000000    -0.0000328     0.0000000    -0.0000317     0.0000000
    -0.0000287    -0.0000300    -0.0000317     0.0000000    -0.0000108
    -0.0000461    -0.0000108     0.0000000    -0.0000108     0.0000000
 l=   3
     0.0000000     0.0000000     0.0000000     0.0000000     0.0000000     0.0000000     0.0000000
     0.0000000     0.0000000     0.0000000     0.0000000     0.0000000     0.0000000     0.0000000
     0.0000000     0.0000000     0.0000000     0.0000000     0.0000000     0.0000000     0.0000000
     0.0000000     0.0000000     0.0000000     0.0000000     0.0000000     0.0000000     0.0000000
     0.0000000     0.0000000     0.0000000     0.0000000     0.0000000     0.0000000     0.0000000
     0.0000000     0.0000000     0.0000000     0.0000000     0.0000000     0.0000000     0.0000000
     0.0000000     0.0000000     0.0000000     0.0000000     0.0000000     0.0000000     0.0000000

 Ion:   62  E_soc:     -0.1805961
 l=   1
     0.0000000    -0.0300761    -0.0299917
    -0.0300761     0.0000000    -0.0300100
    -0.0299917    -0.0300100     0.0000000
 l=   2
     0.0000000    -0.0000296     0.0000000    -0.0000296    -0.0000439
    -0.0000296     0.0000000    -0.0000338    -0.0000287    -0.0000122
     0.0000000    -0.0000338     0.0000000    -0.0000319     0.0000000
    -0.0000296    -0.0000287    -0.0000319     0.0000000    -0.0000107
    -0.0000439    -0.0000122     0.0000000    -0.0000107     0.0000000
 l=   3
     0.0000000     0.0000000     0.0000000     0.0000000     0.0000000     0.0000000     0.0000000
     0.0000000     0.0000000     0.0000000     0.0000000     0.0000000     0.0000000     0.0000000
     0.0000000     0.0000000     0.0000000     0.0000000     0.0000000     0.0000000     0.0000000
     0.0000000     0.0000000     0.0000000     0.0000000     0.0000000     0.0000000     0.0000000
     0.0000000     0.0000000     0.0000000     0.0000000     0.0000000     0.0000000     0.0000000
     0.0000000     0.0000000     0.0000000     0.0000000     0.0000000     0.0000000     0.0000000
     0.0000000     0.0000000     0.0000000     0.0000000     0.0000000     0.0000000     0.0000000

 Ion:   63  E_soc:     -0.1813570
 l=   1
     0.0000000    -0.0301549    -0.0301675
    -0.0301549     0.0000000    -0.0301667
    -0.0301675    -0.0301667     0.0000000
 l=   2
     0.0000000    -0.0000265     0.0000000    -0.0000258    -0.0000372
    -0.0000265     0.0000000    -0.0000284    -0.0000258    -0.0000089
     0.0000000    -0.0000284     0.0000000    -0.0000277     0.0000000
    -0.0000258    -0.0000258    -0.0000277     0.0000000    -0.0000093
    -0.0000372    -0.0000089     0.0000000    -0.0000093     0.0000000
 l=   3
     0.0000000     0.0000000     0.0000000     0.0000000     0.0000000     0.0000000     0.0000000
     0.0000000     0.0000000     0.0000000     0.0000000     0.0000000     0.0000000     0.0000000
     0.0000000     0.0000000     0.0000000     0.0000000     0.0000000     0.0000000     0.0000000
     0.0000000     0.0000000     0.0000000     0.0000000     0.0000000     0.0000000     0.0000000
     0.0000000     0.0000000     0.0000000     0.0000000     0.0000000     0.0000000     0.0000000
     0.0000000     0.0000000     0.0000000     0.0000000     0.0000000     0.0000000     0.0000000
     0.0000000     0.0000000     0.0000000     0.0000000     0.0000000     0.0000000     0.0000000

 Ion:   64  E_soc:     -0.1805556
 l=   1
     0.0000000    -0.0300746    -0.0299818
    -0.0300746     0.0000000    -0.0300012
    -0.0299818    -0.0300012     0.0000000
 l=   2
     0.0000000    -0.0000294     0.0000000    -0.0000298    -0.0000441
    -0.0000294     0.0000000    -0.0000337    -0.0000288    -0.0000120
     0.0000000    -0.0000337     0.0000000    -0.0000318     0.0000000
    -0.0000298    -0.0000288    -0.0000318     0.0000000    -0.0000107
    -0.0000441    -0.0000120     0.0000000    -0.0000107     0.0000000
 l=   3
     0.0000000     0.0000000     0.0000000     0.0000000     0.0000000     0.0000000     0.0000000
     0.0000000     0.0000000     0.0000000     0.0000000     0.0000000     0.0000000     0.0000000
     0.0000000     0.0000000     0.0000000     0.0000000     0.0000000     0.0000000     0.0000000
     0.0000000     0.0000000     0.0000000     0.0000000     0.0000000     0.0000000     0.0000000
     0.0000000     0.0000000     0.0000000     0.0000000     0.0000000     0.0000000     0.0000000
     0.0000000     0.0000000     0.0000000     0.0000000     0.0000000     0.0000000     0.0000000
     0.0000000     0.0000000     0.0000000     0.0000000     0.0000000     0.0000000     0.0000000

 Ion:   65  E_soc:     -0.1813106
 l=   1
     0.0000000    -0.0301509    -0.0301445
    -0.0301509     0.0000000    -0.0301710
    -0.0301445    -0.0301710     0.0000000
 l=   2
     0.0000000    -0.0000266     0.0000000    -0.0000257    -0.0000371
    -0.0000266     0.0000000    -0.0000283    -0.0000259    -0.0000087
     0.0000000    -0.0000283     0.0000000    -0.0000276     0.0000000
    -0.0000257    -0.0000259    -0.0000276     0.0000000    -0.0000092
    -0.0000371    -0.0000087     0.0000000    -0.0000092     0.0000000
 l=   3
     0.0000000     0.0000000     0.0000000     0.0000000     0.0000000     0.0000000     0.0000000
     0.0000000     0.0000000     0.0000000     0.0000000     0.0000000     0.0000000     0.0000000
     0.0000000     0.0000000     0.0000000     0.0000000     0.0000000     0.0000000     0.0000000
     0.0000000     0.0000000     0.0000000     0.0000000     0.0000000     0.0000000     0.0000000
     0.0000000     0.0000000     0.0000000     0.0000000     0.0000000     0.0000000     0.0000000
     0.0000000     0.0000000     0.0000000     0.0000000     0.0000000     0.0000000     0.0000000
     0.0000000     0.0000000     0.0000000     0.0000000     0.0000000     0.0000000     0.0000000
 


 total charge     
 
# of ion       s       p       d       tot
------------------------------------------
    1        0.506   0.321   9.531  10.358
    2        0.507   0.332   9.535  10.374
    3        0.507   0.332   9.535  10.374
    4        0.507   0.334   9.536  10.377
    5        0.507   0.332   9.535  10.374
    6        0.507   0.334   9.536  10.377
    7        0.507   0.334   9.536  10.377
    8        0.507   0.333   9.537  10.376
    9        0.507   0.332   9.535  10.374
   10        0.506   0.322   9.531  10.358
   11        0.507   0.334   9.536  10.377
   12        0.507   0.332   9.535  10.374
   13        0.507   0.334   9.536  10.377
   14        0.507   0.332   9.535  10.374
   15        0.507   0.333   9.537  10.376
   16        0.507   0.334   9.536  10.377
   17        0.507   0.334   9.536  10.377
   18        0.507   0.332   9.535  10.374
   19        0.507   0.333   9.537  10.376
   20        0.507   0.334   9.536  10.377
   21        0.507   0.332   9.535  10.374
   22        0.505   0.321   9.531  10.358
   23        0.507   0.334   9.536  10.377
   24        0.507   0.332   9.535  10.374
   25        0.507   0.332   9.535  10.374
   26        0.507   0.334   9.536  10.377
   27        0.507   0.334   9.536  10.377
   28        0.507   0.333   9.537  10.376
   29        0.506   0.321   9.531  10.358
   30        0.507   0.332   9.535  10.374
   31        0.507   0.332   9.535  10.374
   32        0.507   0.334   9.536  10.377
   33        0.725   0.210   9.503  10.438
   34        1.314   2.063   0.025   3.403
   35        1.323   2.011   0.026   3.360
   36        1.315   2.067   0.024   3.406
   37        1.314   2.063   0.025   3.402
   38        1.314   2.063   0.025   3.402
   39        1.323   2.011   0.026   3.360
   40        1.315   2.067   0.024   3.406
   41        1.314   2.063   0.025   3.402
   42        1.313   2.053   0.024   3.390
   43        1.315   2.059   0.025   3.399
   44        1.315   2.059   0.025   3.399
   45        1.313   2.053   0.024   3.390
   46        1.315   2.059   0.025   3.399
   47        1.313   2.053   0.024   3.390
   48        1.313   2.053   0.024   3.390
   49        1.315   2.059   0.025   3.399
   50        1.314   2.063   0.025   3.402
   51        1.314   2.063   0.025   3.403
   52        1.315   2.067   0.024   3.406
   53        1.315   2.067   0.024   3.406
   54        1.323   2.011   0.026   3.360
   55        1.323   2.011   0.026   3.360
   56        1.314   2.063   0.025   3.402
   57        1.314   2.063   0.025   3.402
   58        1.315   2.067   0.024   3.406
   59        1.314   2.063   0.025   3.402
   60        1.315   2.067   0.024   3.406
   61        1.314   2.063   0.025   3.403
   62        1.314   2.063   0.025   3.402
   63        1.323   2.011   0.026   3.360
   64        1.314   2.063   0.025   3.402
   65        1.323   2.011   0.026   3.360
--------------------------------------------------
tot         59.053  76.492 315.424 450.969
 


 magnetization (x)
 
# of ion       s       p       d       tot
------------------------------------------
    1       -0.001  -0.001   0.000  -0.002
    2       -0.001  -0.001   0.000  -0.002
    3       -0.001  -0.001   0.000  -0.002
    4       -0.001  -0.001   0.000  -0.002
    5       -0.001  -0.001   0.000  -0.002
    6       -0.001  -0.001   0.000  -0.002
    7       -0.001  -0.001   0.000  -0.002
    8       -0.001  -0.001   0.000  -0.002
    9       -0.001  -0.001   0.000  -0.002
   10       -0.001  -0.001   0.000  -0.002
   11       -0.001  -0.001   0.000  -0.002
   12       -0.001  -0.001   0.000  -0.002
   13       -0.001  -0.001   0.000  -0.002
   14       -0.001  -0.001   0.000  -0.002
   15       -0.001  -0.001   0.000  -0.002
   16       -0.001  -0.001   0.000  -0.002
   17       -0.001  -0.001   0.000  -0.002
   18       -0.001  -0.001   0.000  -0.002
   19       -0.001  -0.001   0.000  -0.002
   20       -0.001  -0.001   0.000  -0.002
   21       -0.001  -0.001   0.000  -0.002
   22       -0.001  -0.001   0.000  -0.002
   23       -0.001  -0.001   0.000  -0.002
   24       -0.001  -0.001   0.000  -0.002
   25       -0.001  -0.001   0.000  -0.002
   26       -0.001  -0.001   0.000  -0.002
   27       -0.001  -0.001   0.000  -0.002
   28       -0.001  -0.001   0.000  -0.002
   29       -0.001  -0.001   0.000  -0.002
   30       -0.001  -0.001   0.000  -0.002
   31       -0.001  -0.001   0.000  -0.002
   32       -0.001  -0.001   0.000  -0.002
   33        0.008   0.000  -0.000   0.009
   34        0.001   0.005  -0.000   0.005
   35        0.001   0.006  -0.000   0.007
   36        0.001   0.004  -0.000   0.005
   37        0.001   0.005  -0.000   0.005
   38        0.001   0.005  -0.000   0.005
   39        0.001   0.006  -0.000   0.007
   40        0.001   0.004  -0.000   0.005
   41        0.001   0.005  -0.000   0.005
   42        0.001   0.004  -0.000   0.005
   43        0.001   0.004  -0.000   0.005
   44        0.001   0.004  -0.000   0.005
   45        0.001   0.004  -0.000   0.005
   46        0.001   0.004  -0.000   0.005
   47        0.001   0.004  -0.000   0.005
   48        0.001   0.004  -0.000   0.005
   49        0.001   0.004  -0.000   0.005
   50        0.001   0.005  -0.000   0.005
   51        0.001   0.005  -0.000   0.005
   52        0.001   0.004  -0.000   0.005
   53        0.001   0.004  -0.000   0.005
   54        0.001   0.006  -0.000   0.007
   55        0.001   0.006  -0.000   0.007
   56        0.001   0.005  -0.000   0.005
   57        0.001   0.005  -0.000   0.005
   58        0.001   0.004  -0.000   0.005
   59        0.001   0.005  -0.000   0.005
   60        0.001   0.004  -0.000   0.005
   61        0.001   0.004  -0.000   0.005
   62        0.001   0.005  -0.000   0.005
   63        0.001   0.006  -0.000   0.007
   64        0.001   0.005  -0.000   0.005
   65        0.001   0.006  -0.000   0.007
--------------------------------------------------
tot          0.001   0.122   0.008   0.130
 


 magnetization (y)
 
# of ion       s       p       d       tot
------------------------------------------
    1       -0.001  -0.001   0.000  -0.002
    2       -0.001  -0.001   0.000  -0.002
    3       -0.001  -0.001   0.000  -0.002
    4       -0.001  -0.001   0.000  -0.002
    5       -0.001  -0.001   0.000  -0.002
    6       -0.001  -0.001   0.000  -0.002
    7       -0.001  -0.001   0.000  -0.002
    8       -0.001  -0.001   0.000  -0.002
    9       -0.001  -0.001   0.000  -0.002
   10       -0.001  -0.001   0.000  -0.002
   11       -0.001  -0.001   0.000  -0.002
   12       -0.001  -0.001   0.000  -0.002
   13       -0.001  -0.001   0.000  -0.002
   14       -0.001  -0.001   0.000  -0.002
   15       -0.001  -0.001   0.000  -0.002
   16       -0.001  -0.001   0.000  -0.002
   17       -0.001  -0.001   0.000  -0.002
   18       -0.001  -0.001   0.000  -0.002
   19       -0.001  -0.001   0.000  -0.002
   20       -0.001  -0.001   0.000  -0.002
   21       -0.001  -0.001   0.000  -0.002
   22       -0.001  -0.001   0.000  -0.002
   23       -0.001  -0.001   0.000  -0.002
   24       -0.001  -0.001   0.000  -0.002
   25       -0.001  -0.001   0.000  -0.002
   26       -0.001  -0.001   0.000  -0.002
   27       -0.001  -0.001   0.000  -0.002
   28       -0.001  -0.001   0.000  -0.002
   29       -0.001  -0.001   0.000  -0.002
   30       -0.001  -0.001   0.000  -0.002
   31       -0.001  -0.001   0.000  -0.002
   32       -0.001  -0.001   0.000  -0.002
   33        0.008   0.000  -0.000   0.009
   34        0.001   0.004  -0.000   0.005
   35        0.001   0.006  -0.000   0.007
   36        0.001   0.005  -0.000   0.005
   37        0.001   0.004  -0.000   0.005
   38        0.001   0.005  -0.000   0.005
   39        0.001   0.006  -0.000   0.007
   40        0.001   0.004  -0.000   0.005
   41        0.001   0.005  -0.000   0.005
   42        0.001   0.004  -0.000   0.005
   43        0.001   0.004  -0.000   0.005
   44        0.001   0.004  -0.000   0.005
   45        0.001   0.004  -0.000   0.005
   46        0.001   0.004  -0.000   0.005
   47        0.001   0.004  -0.000   0.005
   48        0.001   0.004  -0.000   0.005
   49        0.001   0.004  -0.000   0.005
   50        0.001   0.005  -0.000   0.005
   51        0.001   0.005  -0.000   0.005
   52        0.001   0.004  -0.000   0.005
   53        0.001   0.004  -0.000   0.005
   54        0.001   0.006  -0.000   0.007
   55        0.001   0.006  -0.000   0.007
   56        0.001   0.005  -0.000   0.005
   57        0.001   0.005  -0.000   0.005
   58        0.001   0.004  -0.000   0.005
   59        0.001   0.005  -0.000   0.005
   60        0.001   0.004  -0.000   0.005
   61        0.001   0.005  -0.000   0.005
   62        0.001   0.004  -0.000   0.005
   63        0.001   0.006  -0.000   0.007
   64        0.001   0.005  -0.000   0.006
   65        0.001   0.006  -0.000   0.007
--------------------------------------------------
tot          0.001   0.122   0.007   0.130
 


 magnetization (z)
 
# of ion       s       p       d       tot
------------------------------------------
    1       -0.001  -0.001   0.000  -0.002
    2       -0.001  -0.001   0.000  -0.002
    3       -0.001  -0.001   0.000  -0.002
    4       -0.001  -0.001   0.000  -0.002
    5       -0.001  -0.001   0.000  -0.002
    6       -0.001  -0.001   0.000  -0.002
    7       -0.001  -0.001   0.000  -0.002
    8       -0.001  -0.001   0.000  -0.002
    9       -0.001  -0.001   0.000  -0.002
   10       -0.001  -0.001   0.000  -0.002
   11       -0.001  -0.001   0.000  -0.002
   12       -0.001  -0.001   0.000  -0.002
   13       -0.001  -0.001   0.000  -0.002
   14       -0.001  -0.001   0.000  -0.002
   15       -0.001  -0.001   0.000  -0.002
   16       -0.001  -0.001   0.000  -0.002
   17       -0.001  -0.001   0.000  -0.002
   18       -0.001  -0.001   0.000  -0.002
   19       -0.001  -0.001   0.000  -0.002
   20       -0.001  -0.001   0.000  -0.002
   21       -0.001  -0.001   0.000  -0.002
   22       -0.001  -0.001   0.000  -0.002
   23       -0.001  -0.001   0.000  -0.002
   24       -0.001  -0.001   0.000  -0.002
   25       -0.001  -0.001   0.000  -0.002
   26       -0.001  -0.001   0.000  -0.002
   27       -0.001  -0.001   0.000  -0.002
   28       -0.001  -0.001   0.000  -0.002
   29       -0.001  -0.001   0.000  -0.002
   30       -0.001  -0.001   0.000  -0.002
   31       -0.001  -0.001   0.000  -0.002
   32       -0.001  -0.001   0.000  -0.002
   33        0.008   0.000  -0.000   0.008
   34        0.001   0.005  -0.000   0.006
   35        0.001   0.006  -0.000   0.007
   36        0.001   0.004  -0.000   0.005
   37        0.001   0.005  -0.000   0.005
   38        0.001   0.005  -0.000   0.005
   39        0.001   0.006  -0.000   0.007
   40        0.001   0.004  -0.000   0.005
   41        0.001   0.005  -0.000   0.005
   42        0.001   0.004  -0.000   0.005
   43        0.001   0.004  -0.000   0.005
   44        0.001   0.004  -0.000   0.005
   45        0.001   0.004  -0.000   0.005
   46        0.001   0.004  -0.000   0.005
   47        0.001   0.004  -0.000   0.005
   48        0.001   0.004  -0.000   0.005
   49        0.001   0.004  -0.000   0.005
   50        0.001   0.005  -0.000   0.005
   51        0.001   0.005  -0.000   0.005
   52        0.001   0.004  -0.000   0.005
   53        0.001   0.004  -0.000   0.005
   54        0.001   0.006  -0.000   0.007
   55        0.001   0.006  -0.000   0.007
   56        0.001   0.004  -0.000   0.005
   57        0.001   0.005  -0.000   0.005
   58        0.001   0.005  -0.000   0.005
   59        0.001   0.005  -0.000   0.005
   60        0.001   0.004  -0.000   0.005
   61        0.001   0.005  -0.000   0.005
   62        0.001   0.005  -0.000   0.005
   63        0.001   0.006  -0.000   0.007
   64        0.001   0.005  -0.000   0.005
   65        0.001   0.006  -0.000   0.007
--------------------------------------------------
tot          0.000   0.122   0.007   0.129
 

 total amount of memory used by VASP MPI-rank0   139967. kBytes
=======================================================================

   base      :      30000. kBytes
   nonl-proj :       3397. kBytes
   fftplans  :       6989. kBytes
   grid      :      11206. kBytes
   one-center:        124. kBytes
   HF        :        129. kBytes
   nonlr-proj:      10053. kBytes
   wavefun   :      78069. kBytes
 
  
  
 General timing and accounting informations for this job:
 ========================================================
  
                  Total CPU time used (sec):     8760.239
                            User time (sec):     8474.686
                          System time (sec):      285.554
                         Elapsed time (sec):     8954.050
  
                   Maximum memory used (kb):      548472.
                   Average memory used (kb):           0.
  
                          Minor page faults:       178829
                          Major page faults:            0
                 Voluntary context switches:         2807
