 vasp.5.4.4.18Apr17-6-g9f103f2a35 (build Apr 27 2017 19:51:02) complex          
  
 executed on       CrayXC-Intel16 date 2020.11.02  12:33:45
 running on  192 total cores
 distrk:  each k-point on   96 cores,    2 groups
 distr:  one band on NCORES_PER_BAND=  12 cores,    8 groups


--------------------------------------------------------------------------------------------------------


 INCAR:
 POTCAR:    PAW_PBE Cd 06Sep2000                  
 POTCAR:    PAW_PBE Te 08Apr2002                  

 ----------------------------------------------------------------------------- 
|                                                                             |
|           W    W    AA    RRRRR   N    N  II  N    N   GGGG   !!!           |
|           W    W   A  A   R    R  NN   N  II  NN   N  G    G  !!!           |
|           W    W  A    A  R    R  N N  N  II  N N  N  G       !!!           |
|           W WW W  AAAAAA  RRRRR   N  N N  II  N  N N  G  GGG   !            |
|           WW  WW  A    A  R   R   N   NN  II  N   NN  G    G                |
|           W    W  A    A  R    R  N    N  II  N    N   GGGG   !!!           |
|                                                                             |
|      You have enabled k-point parallelism (KPAR>1).                         |
|      This developmental code was originally  written by Paul Kent at ORNL,  |
|      and carefully double checked in Vienna.                                |
|      GW as well as linear response parallelism added by Martijn Marsman     |
|      and Georg Kresse.                                                      |
|      Carefully verify results versus KPAR=1.                                |
|      Report problems to Paul Kent and Vienna.                               |
|                                                                             |
 ----------------------------------------------------------------------------- 

 POTCAR:    PAW_PBE Cd 06Sep2000                  
   VRHFIN =Cd : s2 d10                                                          
   LEXCH  = PE                                                                  
   EATOM  =  1293.1815 eV,   95.0462 Ry                                         
                                                                                
   TITEL  = PAW_PBE Cd 06Sep2000                                                
   LULTRA =        F    use ultrasoft PP ?                                      
   IUNSCR =        1    unscreen: 0-lin 1-nonlin 2-no                           
   RPACOR =    2.000    partial core radius                                     
   POMASS =  112.411; ZVAL   =   12.000    mass and valenz                      
   RCORE  =    2.300    outmost cutoff radius                                   
   RWIGS  =    2.980; RWIGS  =    1.577    wigner-seitz radius (au A)           
   ENMAX  =  274.336; ENMIN  =  205.752 eV                                      
   RCLOC  =    2.054    cutoff for local pot                                    
   LCOR   =        T    correct aug charges                                     
   LPAW   =        T    paw PP                                                  
   EAUG   =  456.106                                                            
   DEXC   =    0.000                                                            
   RMAX   =    2.358    core radius for proj-oper                               
   RAUG   =    1.300    factor for augmentation sphere                          
   RDEP   =    2.450    radius for radial grids                                 
   RDEPT  =    1.955    core radius for aug-charge                              
                                                                                
   Atomic configuration                                                         
   12 entries                                                                   
     n  l   j            E        occ.                                          
     1  0  0.50    -26519.7817   2.0000                                         
     2  0  0.50     -3936.9612   2.0000                                         
     2  1  1.50     -3532.2230   6.0000                                         
     3  0  0.50      -733.7908   2.0000                                         
     3  1  1.50      -601.0792   6.0000                                         
     3  2  2.50      -393.5307  10.0000                                         
     4  0  0.50      -105.8977   2.0000                                         
     4  1  1.50       -66.9488   6.0000                                         
     4  2  2.50       -11.7331  10.0000                                         
     5  0  0.50        -5.6592   2.0000                                         
     5  1  0.50        -1.3606   0.0000                                         
     4  3  2.50        -1.3606   0.0000                                         
   Description                                                                  
     l       E           TYP  RCUT    TYP  RCUT                                 
     2    -11.7331479     23  2.300                                             
     2    -13.0937305     23  2.300                                             
     0     -5.6591502     23  2.300                                             
     0     -1.5561433     23  2.300                                             
     1     -2.7211652     23  2.300                                             
     1      8.3548275     23  2.300                                             
  local pseudopotential read in
  partial core-charges read in
  partial kinetic energy density read in
  atomic valenz-charges read in
  non local Contribution for L=           2  read in
    real space projection operators read in
  non local Contribution for L=           2  read in
    real space projection operators read in
  non local Contribution for L=           0  read in
    real space projection operators read in
  non local Contribution for L=           0  read in
    real space projection operators read in
  non local Contribution for L=           1  read in
    real space projection operators read in
  non local Contribution for L=           1  read in
    real space projection operators read in
    PAW grid and wavefunctions read in
 
   number of l-projection  operators is LMAX  =           6
   number of lm-projection operators is LMMAX =          18
 
 POTCAR:    PAW_PBE Te 08Apr2002                  
   VRHFIN =Te: s2p4                                                             
   LEXCH  = PE                                                                  
   EATOM  =   223.2721 eV,   16.4100 Ry                                         
                                                                                
   TITEL  = PAW_PBE Te 08Apr2002                                                
   LULTRA =        F    use ultrasoft PP ?                                      
   IUNSCR =        1    unscreen: 0-lin 1-nonlin 2-no                           
   RPACOR =    2.200    partial core radius                                     
   POMASS =  127.600; ZVAL   =    6.000    mass and valenz                      
   RCORE  =    2.300    outmost cutoff radius                                   
   RWIGS  =    2.900; RWIGS  =    1.535    wigner-seitz radius (au A)           
   ENMAX  =  174.982; ENMIN  =  131.236 eV                                      
   ICORE  =        3    local potential                                         
   LCOR   =        T    correct aug charges                                     
   LPAW   =        T    paw PP                                                  
   EAUG   =  368.792                                                            
   DEXC   =    0.000                                                            
   RMAX   =    2.345    core radius for proj-oper                               
   RAUG   =    1.300    factor for augmentation sphere                          
   RDEP   =    2.397    radius for radial grids                                 
   RDEPT  =    2.174    core radius for aug-charge                              
                                                                                
   Atomic configuration                                                         
   13 entries                                                                   
     n  l   j            E        occ.                                          
     1  0  0.50    -31621.2075   2.0000                                         
     2  0  0.50     -4848.7941   2.0000                                         
     2  1  1.50     -4352.1960   6.0000                                         
     3  0  0.50      -964.9612   2.0000                                         
     3  1  1.50      -803.6179   6.0000                                         
     3  2  2.50      -559.8710  10.0000                                         
     4  0  0.50      -164.3522   2.0000                                         
     4  1  1.50      -114.3756   6.0000                                         
     4  2  2.50       -41.6483  10.0000                                         
     5  0  0.50       -15.1072   2.0000                                         
     5  1  0.50        -5.9526   4.0000                                         
     5  2  1.50        -5.4423   0.0000                                         
     4  3  2.50        -5.4423   0.0000                                         
   Description                                                                  
     l       E           TYP  RCUT    TYP  RCUT                                 
     0    -15.1072389     23  2.300                                             
     0    -16.4678215     23  2.300                                             
     1     -5.9526306     23  2.300                                             
     1     -2.4873968     23  2.300                                             
     2     -5.4423304     23  2.300                                             
     3     -1.3605826     23  2.300                                             
  local pseudopotential read in
  partial core-charges read in
  partial kinetic energy density read in
  atomic valenz-charges read in
  non local Contribution for L=           0  read in
    real space projection operators read in
  non local Contribution for L=           0  read in
    real space projection operators read in
  non local Contribution for L=           1  read in
    real space projection operators read in
  non local Contribution for L=           1  read in
    real space projection operators read in
  non local Contribution for L=           2  read in
    real space projection operators read in
    PAW grid and wavefunctions read in
 
   number of l-projection  operators is LMAX  =           5
   number of lm-projection operators is LMMAX =          13
 

 ----------------------------------------------------------------------------- 
|                                                                             |
|  ADVICE TO THIS USER RUNNING 'VASP/VAMP'   (HEAR YOUR MASTER'S VOICE ...):  |
|                                                                             |
|      You have a (more or less) 'large supercell' and for larger cells       |
|      it might be more efficient to use real space projection opertators     |
|      So try LREAL= Auto  in the INCAR   file.                               |
|      Mind:          For very  accurate calculation you might also keep the  |
|      reciprocal projection scheme          (i.e. LREAL=.FALSE.)             |
|                                                                             |
 ----------------------------------------------------------------------------- 

  PAW_PBE Cd 06Sep2000                  :
 energy of atom  1       EATOM=-1293.1815
 kinetic energy error for atom=    0.0084 (will be added to EATOM!!)
  PAW_PBE Te 08Apr2002                  :
 energy of atom  2       EATOM= -223.2721
 kinetic energy error for atom=    0.0008 (will be added to EATOM!!)
 
 
 POSCAR: Cd33 Te32                               
  positions in direct lattice
  No initial velocities read in
 exchange correlation table for  LEXCH =        8
   RHO(1)=    0.500       N(1)  =     2000
   RHO(2)=  100.500       N(2)  =     4000
 


--------------------------------------------------------------------------------------------------------


 ion  position               nearest neighbor table
   1  0.004  0.996  0.004-  44 2.79  35 2.93  54 2.93  65 2.93  33 2.94
   2  0.001  0.999  0.497-  55 2.82  34 2.82  64 2.82  45 2.84
   3  0.001  0.503  0.001-  63 2.82  56 2.82  37 2.82  42 2.84
   4  1.000  0.501  0.499-  57 2.82  62 2.82  36 2.82  43 2.84
   5  0.497  0.999  0.001-  39 2.82  50 2.82  61 2.82  48 2.84
   6  0.499  0.000  0.499-  38 2.82  51 2.82  60 2.82  49 2.84
   7  0.499  0.501  1.000-  41 2.82  59 2.82  52 2.82  46 2.84
   8  0.501  0.499  0.501-  47 2.82  53 2.83  40 2.83  58 2.83
   9  0.001  0.251  0.253-  54 2.82  34 2.82  62 2.82  42 2.84
  10  0.004  0.254  0.746-  43 2.79  35 2.93  55 2.93  63 2.93  33 2.94
  11  1.000  0.749  0.251-  56 2.82  64 2.82  36 2.82  44 2.84
  12  0.001  0.747  0.749-  65 2.82  57 2.82  37 2.82  45 2.84
  13  0.499  0.250  0.251-  38 2.82  50 2.82  58 2.82  46 2.84
  14  0.497  0.251  0.749-  39 2.82  51 2.82  59 2.82  47 2.84
  15  0.501  0.751  0.249-  48 2.82  52 2.83  40 2.83  60 2.83
  16  0.499  0.749  0.750-  41 2.82  61 2.82  53 2.82  49 2.84
  17  0.251  0.000  0.251-  34 2.82  50 2.82  60 2.82  44 2.84
  18  0.253  0.999  0.749-  35 2.82  51 2.82  61 2.82  45 2.84
  19  0.249  0.499  0.249-  42 2.82  52 2.83  36 2.83  58 2.83
  20  0.251  0.501  0.750-  37 2.82  59 2.82  53 2.82  43 2.84
  21  0.749  0.999  0.253-  54 2.82  38 2.82  64 2.82  48 2.84
  22  0.746  0.996  0.746-  49 2.79  39 2.93  55 2.93  65 2.93  33 2.94
  23  0.750  0.501  0.251-  62 2.82  56 2.82  40 2.82  46 2.84
  24  0.749  0.503  0.749-  63 2.82  57 2.82  41 2.82  47 2.84
  25  0.253  0.251  0.001-  35 2.82  50 2.82  59 2.82  42 2.84
  26  0.251  0.250  0.499-  34 2.82  51 2.82  58 2.82  43 2.84
  27  0.251  0.749  1.000-  37 2.82  61 2.82  52 2.82  44 2.84
  28  0.249  0.751  0.501-  45 2.82  53 2.83  36 2.83  60 2.83
  29  0.746  0.254  0.004-  46 2.79  39 2.93  54 2.93  63 2.93  33 2.94
  30  0.749  0.251  0.497-  55 2.82  38 2.82  62 2.82  47 2.84
  31  0.749  0.747  0.001-  65 2.82  56 2.82  41 2.82  48 2.84
  32  0.750  0.749  0.499-  57 2.82  64 2.82  40 2.82  49 2.84
  33  0.875  0.125  0.875-   1 2.94  10 2.94  22 2.94  29 2.94  35 3.37  39 3.37  54 3.37  55 3.37
                            63 3.37  65 3.37
  34  0.127  0.125  0.375-  17 2.82  26 2.82   2 2.82   9 2.82
  35  0.133  0.125  0.875-  18 2.82  25 2.82  10 2.93   1 2.93  33 3.37
  36  0.126  0.625  0.375-   4 2.82  11 2.82  19 2.83  28 2.83
  37  0.127  0.625  0.875-  20 2.82  27 2.82   3 2.82  12 2.82
  38  0.623  0.125  0.375-  13 2.82   6 2.82  21 2.82  30 2.82
  39  0.617  0.125  0.875-  14 2.82   5 2.82  22 2.93  29 2.93  33 3.37
  40  0.624  0.625  0.375-  23 2.82  32 2.82   8 2.83  15 2.83
  41  0.623  0.625  0.875-   7 2.82  16 2.82  31 2.82  24 2.82
  42  0.125  0.375  0.125-  19 2.82   9 2.84  25 2.84   3 2.84
  43  0.127  0.377  0.623-  10 2.79   4 2.84  20 2.84  26 2.84
  44  0.127  0.873  0.127-   1 2.79  11 2.84  17 2.84  27 2.84
  45  0.125  0.875  0.625-  28 2.82  18 2.84   2 2.84  12 2.84
  46  0.623  0.377  0.127-  29 2.79  13 2.84  23 2.84   7 2.84
  47  0.625  0.375  0.625-   8 2.82  14 2.84  24 2.84  30 2.84
  48  0.625  0.875  0.125-  15 2.82  21 2.84   5 2.84  31 2.84
  49  0.623  0.873  0.623-  22 2.79  32 2.84   6 2.84  16 2.84
  50  0.375  0.125  0.127-  17 2.82  13 2.82   5 2.82  25 2.82
  51  0.375  0.125  0.623-   6 2.82  26 2.82  18 2.82  14 2.82
  52  0.375  0.625  0.126-   7 2.82  27 2.82  19 2.83  15 2.83
  53  0.375  0.625  0.624-  16 2.82  20 2.82   8 2.83  28 2.83
  54  0.875  0.125  0.133-   9 2.82  21 2.82   1 2.93  29 2.93  33 3.37
  55  0.875  0.125  0.617-  30 2.82   2 2.82  22 2.93  10 2.93  33 3.37
  56  0.875  0.625  0.127-  11 2.82  23 2.82   3 2.82  31 2.82
  57  0.875  0.625  0.623-   4 2.82  32 2.82  12 2.82  24 2.82
  58  0.375  0.376  0.375-  26 2.82  13 2.82  19 2.83   8 2.83
  59  0.375  0.377  0.875-   7 2.82  20 2.82  14 2.82  25 2.82
  60  0.375  0.874  0.375-   6 2.82  17 2.82  15 2.83  28 2.83
  61  0.375  0.873  0.875-  16 2.82  27 2.82   5 2.82  18 2.82
  62  0.875  0.377  0.375-   4 2.82  23 2.82   9 2.82  30 2.82
  63  0.875  0.383  0.875-  24 2.82   3 2.82  10 2.93  29 2.93  33 3.37
  64  0.875  0.873  0.375-  11 2.82  32 2.82   2 2.82  21 2.82
  65  0.875  0.867  0.875-  12 2.82  31 2.82   1 2.93  22 2.93  33 3.37
 

IMPORTANT INFORMATION: All symmetrisations will be switched off!
NOSYMM: (Re-)initialisation of all symmetry stuff for point group C_1.

 
 
 KPOINTS: Automatically generated mesh            
  k-points in reciprocal lattice
Space group operators:
 irot       det(A)        alpha          n_x          n_y          n_z        tau_x        tau_y        tau_z
    1     1.000000     0.000000     1.000000     0.000000     0.000000     0.000000     0.000000     0.000000

 ----------------------------------------------------------------------------- 
|                                                                             |
|           W    W    AA    RRRRR   N    N  II  N    N   GGGG   !!!           |
|           W    W   A  A   R    R  NN   N  II  NN   N  G    G  !!!           |
|           W    W  A    A  R    R  N N  N  II  N N  N  G       !!!           |
|           W WW W  AAAAAA  RRRRR   N  N N  II  N  N N  G  GGG   !            |
|           WW  WW  A    A  R   R   N   NN  II  N   NN  G    G                |
|           W    W  A    A  R    R  N    N  II  N    N   GGGG   !!!           |
|                                                                             |
|      Your generating k-point grid is not commensurate to the symmetry       |
|      of the lattice.  This can cause   slow convergence with respect        |
|      to k-points for HF type calculations                                   |
|      suggested SOLUTIONS:                                                   |
|       ) if not already the case, use automatic k-point generation           |
|       ) shift your grid to Gamma (G) (e.g. required for hex or fcc lattice) |
|                                                                             |
 ----------------------------------------------------------------------------- 

 
 Subroutine IBZKPT_HF returns following result:
 ==============================================
 
 Found      8 k-points in 1st BZ
 the following      8 k-points will be used (e.g. in the exchange kernel)
 Following reciprocal coordinates:   # in IRBZ
  0.000000  0.000000  0.000000    0.12500000   1 t-inv F
  0.500000  0.000000  0.000000    0.12500000   2 t-inv F
  0.000000  0.500000  0.000000    0.12500000   3 t-inv F
  0.500000  0.500000  0.000000    0.12500000   4 t-inv F
  0.000000  0.000000  0.500000    0.12500000   5 t-inv F
  0.500000  0.000000  0.500000    0.12500000   6 t-inv F
  0.000000  0.500000  0.500000    0.12500000   7 t-inv F
  0.500000  0.500000  0.500000    0.12500000   8 t-inv F


--------------------------------------------------------------------------------------------------------




 Dimension of arrays:
   k-points           NKPTS =      8   k-points in BZ     NKDIM =      8   number of bands    NBANDS=    776
   number of dos      NEDOS =   2000   number of ions     NIONS =     65
   non local maximal  LDIM  =      6   non local SUM 2l+1 LMDIM =     18
   total plane-waves  NPLWV = 884736
   max r-space proj   IRMAX =      1   max aug-charges    IRDMAX= 183854
   dimension x,y,z NGX =    96 NGY =   96 NGZ =   96
   dimension x,y,z NGXF=   192 NGYF=  192 NGZF=  192
   support grid    NGXF=   384 NGYF=  384 NGZF=  384
   ions per type =              33  32
   NGX,Y,Z   is equivalent  to a cutoff of  12.20, 12.20, 12.20 a.u.
   NGXF,Y,Z  is equivalent  to a cutoff of  24.39, 24.39, 24.39 a.u.

 SYSTEM =  unknown system                          
 POSCAR =  Cd33 Te32                               

 Startparameter for this run:
   NWRITE =      2    write-flag & timer
   PREC   = accura    normal or accurate (medium, high low for compatibility)
   ISTART =      0    job   : 0-new  1-cont  2-samecut
   ICHARG =      1    charge: 1-file 2-atom 10-const
   ISPIN  =      1    spin polarized calculation?
   LNONCOLLINEAR =      T non collinear calculations
   LSORBIT =      T    spin-orbit coupling
   INIWAV =      1    electr: 0-lowe 1-rand  2-diag
   LASPH  =      T    aspherical Exc in radial PAW
   METAGGA=      F    non-selfconsistent MetaGGA calc.

 Electronic Relaxation 1
   ENCUT  =  450.0 eV  33.07 Ry    5.75 a.u.  22.64 22.64 22.64*2*pi/ulx,y,z
   ENINI  =  450.0     initial cutoff
   ENAUG  =  456.1 eV  augmentation charge cutoff
   NELM   =      5;   NELMIN=  2; NELMDL= -5     # of ELM steps 
   EDIFF  = 0.1E-05   stopping-criterion for ELM
   LREAL  =      F    real-space projection
   NLSPLINE    = F    spline interpolate recip. space projectors
   LCOMPAT=      F    compatible to vasp.4.4
   GGA_COMPAT  = T    GGA compatible to vasp.4.4-vasp.4.6
   LMAXPAW     = -100 max onsite density
   LMAXMIX     =    2 max onsite mixed and CHGCAR
   VOSKOWN=      0    Vosko Wilk Nusair interpolation
   ROPT   =    0.00000   0.00000
 Ionic relaxation
   EDIFFG = -.1E-01   stopping-criterion for IOM
   NSW    =      0    number of steps for IOM
   NBLOCK =      1;   KBLOCK =      1    inner block; outer block 
   IBRION =     -1    ionic relax: 0-MD 1-quasi-New 2-CG
   NFREE  =      0    steps in history (QN), initial steepest desc. (CG)
   ISIF   =      2    stress and relaxation
   IWAVPR =     10    prediction:  0-non 1-charg 2-wave 3-comb
   ISYM   =      0    0-nonsym 1-usesym 2-fastsym
   LCORR  =      T    Harris-Foulkes like correction to forces

   POTIM  = 0.5000    time-step for ionic-motion
   TEIN   =    0.0    initial temperature
   TEBEG  =    0.0;   TEEND  =   0.0 temperature during run
   SMASS  =  -3.00    Nose mass-parameter (am)
   estimated Nose-frequenzy (Omega)   =  0.10E-29 period in steps =****** mass=  -0.391E-26a.u.
   SCALEE = 1.0000    scale energy and forces
   NPACO  =    256;   APACO  = 16.0  distance and # of slots for P.C.
   PSTRESS=    0.0 pullay stress

  Mass of Ions in am
   POMASS = 112.41127.60
  Ionic Valenz
   ZVAL   =  12.00  6.00
  Atomic Wigner-Seitz radii
   RWIGS  =  -1.00 -1.00
  virtual crystal weights 
   VCA    =   1.00  1.00
   NELECT =     588.0000    total number of electrons
   NUPDOWN=      -1.0000    fix difference up-down

 DOS related values:
   EMIN   =  10.00;   EMAX   =-10.00  energy-range for DOS
   EFERMI =   0.00
   ISMEAR =     0;   SIGMA  =   0.05  broadening in eV -4-tet -1-fermi 0-gaus

 Electronic relaxation 2 (details)
   IALGO  =     58    algorithm
   LDIAG  =      T    sub-space diagonalisation (order eigenvalues)
   LSUBROT=      F    optimize rotation matrix (better conditioning)
   TURBO    =      0    0=normal 1=particle mesh
   IRESTART =      0    0=no restart 2=restart with 2 vectors
   NREBOOT  =      0    no. of reboots
   NMIN     =      0    reboot dimension
   EREF     =   0.00    reference energy to select bands
   IMIX   =      4    mixing-type and parameters
     AMIX     =   0.40;   BMIX     =  1.00
     AMIX_MAG =   1.60;   BMIX_MAG =  1.00
     AMIN     =   0.10
     WC   =   100.;   INIMIX=   1;  MIXPRE=   1;  MAXMIX= -45

 Intra band minimization:
   WEIMIN = 0.0000     energy-eigenvalue tresh-hold
   EBREAK =  0.32E-09  absolut break condition
   DEPER  =   0.30     relativ break condition  

   TIME   =   0.40     timestep for ELM

  volume/ion in A,a.u.               =      34.48       232.69
  Fermi-wavevector in a.u.,A,eV,Ry     =   1.048017  1.980464 14.943809  1.098339
  Thomas-Fermi vector in A             =   2.182921
 
 Write flags
   LWAVE        =      T    write WAVECAR
   LDOWNSAMPLE  =      F    k-point downsampling of WAVECAR
   LCHARG       =      T    write CHGCAR
   LVTOT        =      F    write LOCPOT, total local potential
   LVHAR        =      T    write LOCPOT, Hartree potential only
   LELF         =      F    write electronic localiz. function (ELF)
   LORBIT       =     11    0 simple, 1 ext, 2 COOP (PROOUT), +10 PAW based schemes


 Dipole corrections
   LMONO  =      F    monopole corrections only (constant potential shift)
   LDIPOL =      F    correct potential (dipole corrections)
   IDIPOL =      0    1-x, 2-y, 3-z, 4-all directions 
   EPSILON=  1.0000000 bulk dielectric constant

 Exchange correlation treatment:
   GGA     =    --    GGA type
   LEXCH   =     8    internal setting for exchange type
   VOSKOWN=      0    Vosko Wilk Nusair interpolation
   EXXOEP  =     0    0=HF, 1=EXX-LHF (local Hartree Fock) 2=EXX OEP
   LHFCALC =     T    Hartree Fock is set to
   LSYMGRAD=     F    symmetrize gradient (conserves proper symmetry)
   PRECFOCK=fast      Normal, Fast or Accurate (Low or Medium for compatibility)
   LRHFCALC=     F    long range Hartree Fock
   LRSCOR  =     F    long range correlation only (use DFT for short range part)
   LTHOMAS =     F    Thomas Fermi screening in HF
   LMODELHF=     F    short range full HF, long range fraction AEXX
   ENCUT4O =  -1.0   cutoff for four orbital integrals eV
   LMAXFOCK=     4    L truncation for augmentation on plane wave grid
   LMAXFOCKAE=  -1    L truncation for all-electron charge restoration on plane wave grid
   NMAXFOCKAE=   1    number of basis functions for all-electron charge restoration
   LFOCKAEDFT=     F  apply the AE augmentation even for DFT
   NKREDX  =     1    reduce k-point grid by
   NKREDY  =     1    reduce k-point grid by
   NKREDZ  =     1    reduce k-point grid by
   SHIFTRED=     F    shift reduced grid of Gamma
   HFKIDENT=     F    idential grid for each k-point
   ODDONLY =     F    use only odd q-grid points
   EVENONLY=     F    use only even q-grid points
   HFALPHA =   -1.0000 decay constant for conv. correction
   MCALPHA =    0.0000 extent of test-charge in conv. correction in multipole expansion
   AEXX    =    0.2500 exact exchange contribution
   HFSCREEN=    0.2000 screening length (either q_TF or 0.3 A-1)
   HFSCREENC=   0.2000 screening length for correlation (either q_TF or 0.3 A-1)
   HFRCUT  =    0.0000 spherical cutoff for potential kernel
   ALDAX   =    0.7500 LDA exchange part
   AGGAX   =    0.7500 GGA exchange part
   ALDAC   =    1.0000 LDA correlation
   AGGAC   =    1.0000 GGA correlation
   ENCUTFOCK=  -1.0 apply spherical cutoff to Coloumb kernel
   NBANDSGWLOW=     1    first orbital included in HF term
   NBLOCK_FOCK=    64    blocking factor in FOCK_ACC
 Linear response parameters
   LEPSILON=     F    determine dielectric tensor
   LRPA    =     F    only Hartree local field effects (RPA)
   LNABLA  =     F    use nabla operator in PAW spheres
   LVEL    =     F    velocity operator in full k-point grid
   LINTERFAST=   F  fast interpolation
   KINTER  =     0    interpolate to denser k-point grid
   CSHIFT  =0.1000    complex shift for real part using Kramers Kronig
   OMEGAMAX=  -1.0    maximum frequency
   DEG_THRESHOLD= 0.2000000E-02 threshold for treating states as degnerate
   RTIME   =   -0.100 relaxation time in fs
  (WPLASMAI=    0.000 imaginary part of plasma frequency in eV, 0.658/RTIME)
   DFIELD  = 0.0000000 0.0000000 0.0000000 field for delta impulse in time
 
 Orbital magnetization related:
   ORBITALMAG=     F  switch on orbital magnetization
   LCHIMAG   =     F  perturbation theory with respect to B field
   DQ        =  0.001000  dq finite difference perturbation B field
   LLRAUG    =     F  two centre corrections for induced B field



--------------------------------------------------------------------------------------------------------


 Static calculation
 charge density and potential will be updated during run
 non collinear spin polarized calculation
 Conjugate gradient for all bands (Freysoldt, et al. PRB 79, 241103 (2009))
 preconditioned conjugated gradient                                        
 perform sub-space diagonalisation
    before iterative eigenvector-optimisation
 modified Broyden-mixing scheme, WC =      100.0
 initial mixing is a Kerker type mixing with AMIX =  0.4000 and BMIX =      1.0000
 Hartree-type preconditioning will be used
 using additional bands          482
 reciprocal scheme for non local part
 use partial core corrections
 no Harris-corrections to forces 
 use gradient corrections 
 use of overlap-Matrix (Vanderbilt PP)
 Gauss-broadening in eV      SIGMA  =   0.05


--------------------------------------------------------------------------------------------------------


  energy-cutoff  :      450.00
  volume of cell :     2241.29
      direct lattice vectors                 reciprocal lattice vectors
    13.086768000  0.000000000  0.000000000     0.076413061  0.000000000  0.000000000
     0.000000000 13.086768000  0.000000000     0.000000000  0.076413061  0.000000000
     0.000000000  0.000000000 13.086768000     0.000000000  0.000000000  0.076413061

  length of vectors
    13.086768000 13.086768000 13.086768000     0.076413061  0.076413061  0.076413061


 
 k-points in units of 2pi/SCALE and weight: Automatically generated mesh            
   0.00000000  0.00000000  0.00000000       0.125
   0.03820653  0.00000000  0.00000000       0.125
   0.00000000  0.03820653  0.00000000       0.125
   0.03820653  0.03820653  0.00000000       0.125
   0.00000000  0.00000000  0.03820653       0.125
   0.03820653  0.00000000  0.03820653       0.125
   0.00000000  0.03820653  0.03820653       0.125
   0.03820653  0.03820653  0.03820653       0.125
 
 k-points in reciprocal lattice and weights: Automatically generated mesh            
   0.00000000  0.00000000  0.00000000       0.125
   0.50000000  0.00000000  0.00000000       0.125
   0.00000000  0.50000000  0.00000000       0.125
   0.50000000  0.50000000  0.00000000       0.125
   0.00000000  0.00000000  0.50000000       0.125
   0.50000000  0.00000000  0.50000000       0.125
   0.00000000  0.50000000  0.50000000       0.125
   0.50000000  0.50000000  0.50000000       0.125
 
 position of ions in fractional coordinates (direct lattice) 
   0.00448500  0.99551500  0.00448500
   0.00124700  0.99875300  0.49695900
   0.00124700  0.50304100  0.00124700
   0.99962500  0.50121800  0.49878200
   0.49695900  0.99875300  0.00124700
   0.49878100  0.00037500  0.49878100
   0.49878100  0.50121900  0.99962500
   0.50052800  0.49947200  0.50052800
   0.00124700  0.25124700  0.25304000
   0.00448600  0.25448500  0.74551500
   0.99962500  0.74878200  0.25121800
   0.00124700  0.74695900  0.74875300
   0.49878200  0.24962500  0.25121900
   0.49696000  0.25124700  0.74875300
   0.50052800  0.75052800  0.24947200
   0.49878100  0.74878100  0.75037500
   0.25121900  0.00037500  0.25121900
   0.25304000  0.99875300  0.74875300
   0.24947200  0.49947200  0.24947200
   0.25121900  0.50121900  0.75037500
   0.74875300  0.99875300  0.25304000
   0.74551400  0.99551500  0.74551500
   0.75037500  0.50121900  0.25121900
   0.74875300  0.50304000  0.74875300
   0.25304000  0.25124700  0.00124700
   0.25121900  0.24962500  0.49878100
   0.25121900  0.74878100  0.99962500
   0.24947200  0.75052800  0.50052800
   0.74551400  0.25448500  0.00448500
   0.74875300  0.25124700  0.49696000
   0.74875300  0.74695900  0.00124700
   0.75037500  0.74878200  0.49878200
   0.87500000  0.12500000  0.87500000
   0.12665600  0.12500000  0.37500000
   0.13277900  0.12500000  0.87500000
   0.12589200  0.62500000  0.37500000
   0.12665600  0.62500000  0.87500000
   0.62334400  0.12500000  0.37500000
   0.61722100  0.12500000  0.87500000
   0.62410800  0.62500000  0.37500000
   0.62334400  0.62500000  0.87500000
   0.12484800  0.37484800  0.12484800
   0.12748800  0.37748800  0.62251200
   0.12748800  0.87251200  0.12748800
   0.12484800  0.87515200  0.62515200
   0.62251200  0.37748800  0.12748800
   0.62515200  0.37484800  0.62515200
   0.62515200  0.87515200  0.12484800
   0.62251200  0.87251200  0.62251200
   0.37500000  0.12500000  0.12665600
   0.37500000  0.12500000  0.62334400
   0.37500000  0.62500000  0.12589200
   0.37500000  0.62500000  0.62410800
   0.87500000  0.12500000  0.13277900
   0.87500000  0.12500000  0.61722100
   0.87500000  0.62500000  0.12665600
   0.87500000  0.62500000  0.62334400
   0.37500000  0.37589200  0.37500000
   0.37500000  0.37665600  0.87500000
   0.37500000  0.87410800  0.37500000
   0.37500000  0.87334400  0.87500000
   0.87500000  0.37665600  0.37500000
   0.87500000  0.38277900  0.87500000
   0.87500000  0.87334400  0.37500000
   0.87500000  0.86722100  0.87500000
 
 position of ions in cartesian coordinates  (Angst):
   0.05869415 13.02807385  0.05869415
   0.01631920 13.07044880  6.50358714
   0.01631920  6.58318086  0.01631920
  13.08186046  6.55932368  6.52744432
   6.50358714 13.07044880  0.01631920
   6.52743123  0.00490754  6.52743123
   6.52743123  6.55933677 13.08186046
   6.55029381  6.53647419  6.55029381
   0.01631920  3.28801120  3.31147577
   0.05870724  3.33038615  9.75638185
  13.08186046  9.79913632  3.28763168
   0.01631920  9.77527914  9.79875680
   6.52744432  3.26678446  3.28764477
   6.50360023  3.28801120  9.79875680
   6.55029381  9.82198581  3.26478219
   6.52743123  9.79912323  9.81998354
   3.28764477  0.00490754  3.28764477
   3.31147577 13.07044880  9.79875680
   3.26478219  6.53647419  3.26478219
   3.28764477  6.55933677  9.81998354
   9.79875680 13.07044880  3.31147577
   9.75636876 13.02807385  9.75638185
   9.81998354  6.55933677  3.28764477
   9.79875680  6.58316777  9.79875680
   3.31147577  3.28801120  0.01631920
   3.28764477  3.26678446  6.52743123
   3.28764477  9.79912323 13.08186046
   3.26478219  9.82198581  6.55029381
   9.75636876  3.33038615  0.05869415
   9.79875680  3.28801120  6.50360023
   9.79875680  9.77527914  0.01631920
   9.81998354  9.79913632  6.52744432
  11.45092200  1.63584600 11.45092200
   1.65751769  1.63584600  4.90753800
   1.73764797  1.63584600 11.45092200
   1.64751940  8.17923000  4.90753800
   1.65751769  8.17923000 11.45092200
   8.15755831  1.63584600  4.90753800
   8.07742803  1.63584600 11.45092200
   8.16755660  8.17923000  4.90753800
   8.15755831  8.17923000 11.45092200
   1.63385681  4.90554881  1.63385681
   1.66840588  4.94009788  8.14667012
   1.66840588 11.41836212  1.66840588
   1.63385681 11.45291119  8.18121919
   8.14667012  4.94009788  1.66840588
   8.18121919  4.90554881  8.18121919
   8.18121919 11.45291119  1.63385681
   8.14667012 11.41836212  8.14667012
   4.90753800  1.63584600  1.65751769
   4.90753800  1.63584600  8.15755831
   4.90753800  8.17923000  1.64751940
   4.90753800  8.17923000  8.16755660
  11.45092200  1.63584600  1.73764797
  11.45092200  1.63584600  8.07742803
  11.45092200  8.17923000  1.65751769
  11.45092200  8.17923000  8.15755831
   4.90753800  4.91921140  4.90753800
   4.90753800  4.92920969 11.45092200
   4.90753800 11.43924860  4.90753800
   4.90753800 11.42925031 11.45092200
  11.45092200  4.92920969  4.90753800
  11.45092200  5.00933997 11.45092200
  11.45092200 11.42925031  4.90753800
  11.45092200 11.34912003 11.45092200
 
 Euler angles ALPHA=     0.0000000  BETA=     0.0000000

 transformation matrix from SAXIS to cartesian coordinates
 ---------------------------------------------------------
     1.0000000 m_x     0.0000000 m_y     0.0000000 m_z
     0.0000000 m_x     1.0000000 m_y     0.0000000 m_z
     0.0000000 m_x     0.0000000 m_y     1.0000000 m_z

 transformation matrix from cartesian coordinates to SAXIS
 ---------------------------------------------------------
     1.0000000 m_x     0.0000000 m_y     0.0000000 m_z
     0.0000000 m_x     1.0000000 m_y     0.0000000 m_z
     0.0000000 m_x     0.0000000 m_y     1.0000000 m_z




--------------------------------------------------------------------------------------------------------


 k-point  1 :   0.0000 0.0000 0.0000  plane waves:   97002
 k-point  2 :   0.5000 0.0000 0.0000  plane waves:   97356
 k-point  3 :   0.0000 0.5000 0.0000  plane waves:   97356
 k-point  4 :   0.5000 0.5000 0.0000  plane waves:   96960
 k-point  5 :   0.0000 0.0000 0.5000  plane waves:   97356
 k-point  6 :   0.5000 0.0000 0.5000  plane waves:   96960
 k-point  7 :   0.0000 0.5000 0.5000  plane waves:   96960
 k-point  8 :   0.5000 0.5000 0.5000  plane waves:   96832

 maximum and minimum number of plane-waves per node :      8168     8022

 maximum number of plane-waves:     97356
 maximum index in each direction: 
   IXMAX=   22   IYMAX=   22   IZMAX=   22
   IXMIN=  -23   IYMIN=  -23   IZMIN=  -23


 parallel 3D FFT for wavefunctions:
    minimum data exchange during FFTs selected (reduces bandwidth)
 parallel 3D FFT for charge:
    minimum data exchange during FFTs selected (reduces bandwidth)


 FFT grid for exact exchange (Hartree Fock) 
  NGX = 48; NGY = 48; NGZ = 48

 
 Radii for the augmentation spheres in the non-local exchange
 for species   1 augmentation radius   1.444 (default was   1.070)
       energy cutoff for augmentation   1800.0
 for species   2 augmentation radius   1.606 (default was   1.190)
       energy cutoff for augmentation   1800.0

 real space projection operators:
  total allocation   :       9375.20 KBytes
  max/ min on nodes  :        906.84        565.23

 Maximum index for augmentation-charges in exchange           92
  SETUP_FOCK is finished

 total amount of memory used by VASP MPI-rank0   407321. kBytes
=======================================================================

   base      :      30000. kBytes
   nonl-proj :      13590. kBytes
   fftplans  :      24513. kBytes
   grid      :      27131. kBytes
   one-center:        373. kBytes
   HF        :        129. kBytes
   nonlr-proj:       1682. kBytes
   wavefun   :     309903. kBytes
 
     INWAV:  cpu time    0.0000: real time    0.0000
 Broyden mixing: mesh for mixing (old mesh)
   NGX = 45   NGY = 45   NGZ = 45
  (NGX  =192   NGY  =192   NGZ  =192)
  gives a total of  91125 points

 initial charge density was supplied:
 charge density of overlapping atoms calculated
 number of electron     588.0000000 magnetization      65.0000000     65.0000000     65.0000000
 keeping initial charge density in first step


--------------------------------------------------------------------------------------------------------


 Maximum index for augmentation-charges         3098 (set IRDMAX)


--------------------------------------------------------------------------------------------------------


 First call to EWALD:  gamma=   0.135
 Maximum number of real-space cells 3x 3x 3
 Maximum number of reciprocal cells 3x 3x 3

    FEWALD:  cpu time    0.0160: real time    0.0161


--------------------------------------- Iteration      1(   1)  ---------------------------------------


    POTLOK:  cpu time    0.7000: real time    0.7003
    SETDIJ:  cpu time    2.7042: real time    2.7044
    TRIAL :  cpu time   56.6355: real time   56.6725
    CORREC:  cpu time    0.0000: real time    0.0031
    --------------------------------------------
      LOOP:  cpu time   60.0998: real time   60.2886

 eigenvalue-minimisations  : 12424
 total energy-change (2. order) : 0.4615607E+04  (-0.2533141E+05)
 number of electron     588.0000000 magnetization      65.0000000     65.0000000     65.0000000
 augmentation part      588.0000000 magnetization      65.0000000     65.0000000     65.0000000

 Free energy of the ion-electron system (eV)
  ---------------------------------------------------
  alpha Z        PSCENC =      1642.45118531
  Ewald energy   TEWEN  =    -33940.17512420
  -Hartree energ DENC   =    -17077.89199325
  -exchange      EXHF   =         0.00000000
  -V(xc)+E(xc)   XCENC  =      -617.56595420
  PAW double counting   =     46020.13617447   -43994.38458495
  entropy T*S    EENTRO =        -0.02937023
  eigenvalues    EBANDS =      2833.64089542
  atomic energy  EATOM  =     49749.42546359
  ---------------------------------------------------
  free energy    TOTEN  =      4615.60669196 eV

  energy without entropy =     4615.63606219  energy(sigma->0) =     4615.62137708
  exchange ACFDT corr.  =         0.00000000  see jH, gK, PRB 81, 115126


--------------------------------------------------------------------------------------------------------




--------------------------------------- Iteration      1(   2)  ---------------------------------------


    TRIAL :  cpu time   60.4798: real time   60.5210
    CORREC:  cpu time    0.0040: real time    0.0042
    --------------------------------------------
      LOOP:  cpu time   60.4918: real time   60.5381

 eigenvalue-minimisations  : 13536
 total energy-change (2. order) :-0.3433758E+04  (-0.3271502E+04)
 number of electron     588.0000000 magnetization      65.0000000     65.0000000     65.0000000
 augmentation part      588.0000000 magnetization      65.0000000     65.0000000     65.0000000

 Free energy of the ion-electron system (eV)
  ---------------------------------------------------
  alpha Z        PSCENC =      1642.45118531
  Ewald energy   TEWEN  =    -33940.17512420
  -Hartree energ DENC   =    -17077.89199325
  -exchange      EXHF   =         0.00000000
  -V(xc)+E(xc)   XCENC  =      -617.56595420
  PAW double counting   =     46020.13617447   -43994.38458495
  entropy T*S    EENTRO =        -0.01070254
  eigenvalues    EBANDS =      -600.13600146
  atomic energy  EATOM  =     49749.42546359
  ---------------------------------------------------
  free energy    TOTEN  =      1181.84846278 eV

  energy without entropy =     1181.85916532  energy(sigma->0) =     1181.85381405
  exchange ACFDT corr.  =         0.00000000  see jH, gK, PRB 81, 115126


--------------------------------------------------------------------------------------------------------




--------------------------------------- Iteration      1(   3)  ---------------------------------------


    TRIAL :  cpu time   62.7519: real time   62.7930
    CORREC:  cpu time    0.0040: real time    0.0035
    --------------------------------------------
      LOOP:  cpu time   62.7639: real time   62.8102

 eigenvalue-minimisations  : 14200
 total energy-change (2. order) :-0.2346437E+03  (-0.2318685E+03)
 number of electron     588.0000000 magnetization      65.0000000     65.0000000     65.0000000
 augmentation part      588.0000000 magnetization      65.0000000     65.0000000     65.0000000

 Free energy of the ion-electron system (eV)
  ---------------------------------------------------
  alpha Z        PSCENC =      1642.45118531
  Ewald energy   TEWEN  =    -33940.17512420
  -Hartree energ DENC   =    -17077.89199325
  -exchange      EXHF   =         0.00000000
  -V(xc)+E(xc)   XCENC  =      -617.56595420
  PAW double counting   =     46020.13617447   -43994.38458495
  entropy T*S    EENTRO =        -0.01253654
  eigenvalues    EBANDS =      -834.77786020
  atomic energy  EATOM  =     49749.42546359
  ---------------------------------------------------
  free energy    TOTEN  =       947.20477003 eV

  energy without entropy =      947.21730657  energy(sigma->0) =      947.21103830
  exchange ACFDT corr.  =         0.00000000  see jH, gK, PRB 81, 115126


--------------------------------------------------------------------------------------------------------




--------------------------------------- Iteration      1(   4)  ---------------------------------------


    TRIAL :  cpu time   63.4200: real time   63.4646
    CORREC:  cpu time    0.0040: real time    0.0039
    --------------------------------------------
      LOOP:  cpu time   63.4240: real time   63.4759

 eigenvalue-minimisations  : 14368
 total energy-change (2. order) :-0.5507668E+01  (-0.5492019E+01)
 number of electron     588.0000000 magnetization      65.0000000     65.0000000     65.0000000
 augmentation part      588.0000000 magnetization      65.0000000     65.0000000     65.0000000

 Free energy of the ion-electron system (eV)
  ---------------------------------------------------
  alpha Z        PSCENC =      1642.45118531
  Ewald energy   TEWEN  =    -33940.17512420
  -Hartree energ DENC   =    -17077.89199325
  -exchange      EXHF   =         0.00000000
  -V(xc)+E(xc)   XCENC  =      -617.56595420
  PAW double counting   =     46020.13617447   -43994.38458495
  entropy T*S    EENTRO =        -0.01278113
  eigenvalues    EBANDS =      -840.28528383
  atomic energy  EATOM  =     49749.42546359
  ---------------------------------------------------
  free energy    TOTEN  =       941.69710181 eV

  energy without entropy =      941.70988294  energy(sigma->0) =      941.70349238
  exchange ACFDT corr.  =         0.00000000  see jH, gK, PRB 81, 115126


--------------------------------------------------------------------------------------------------------




--------------------------------------- Iteration      1(   5)  ---------------------------------------


    TRIAL :  cpu time   66.1401: real time   66.1868
    CORREC:  cpu time    0.0040: real time    0.0037
    EDDIAG:  cpu time 2181.1603: real time 2182.5323
    CHARGE:  cpu time    3.8322: real time    3.8328
    --------------------------------------------
      LOOP:  cpu time 2251.1447: real time 2252.5677

 eigenvalue-minimisations  : 15248
 total energy-change (2. order) :-0.1068601E+00  (-0.1066630E+00)
 number of electron     588.0000006 magnetization       0.5418052      0.5417942      0.5418001
 augmentation part      145.5270407 magnetization       0.5975461      0.5974938      0.5974901

 Free energy of the ion-electron system (eV)
  ---------------------------------------------------
  alpha Z        PSCENC =      1642.45118531
  Ewald energy   TEWEN  =    -33940.17512420
  -Hartree energ DENC   =    -17077.89199325
  -exchange      EXHF   =      1105.10949074
  -V(xc)+E(xc)   XCENC  =      -617.56595420
  PAW double counting   =     46020.13617447   -43994.38458495
  entropy T*S    EENTRO =        -0.01278113
  eigenvalues    EBANDS =      -840.39214394
  atomic energy  EATOM  =     49749.42546359
  ---------------------------------------------------
  free energy    TOTEN  =       941.59024171 eV

  energy without entropy =      941.60302284  energy(sigma->0) =      941.59663227
  exchange ACFDT corr.  =         0.00000000  see jH, gK, PRB 81, 115126


--------------------------------------------------------------------------------------------------------


  average scaling for gradient   1.0000


 average (electrostatic) potential at core
  the test charge radii are     1.0698  1.1897
  (the norm of the test charge is              1.0000)
       1 -31.9186       2 -31.9235       3 -31.9235       4 -31.9245       5 -31.9235
       6 -31.9245       7 -31.9245       8 -31.9197       9 -31.9235      10 -31.9186
      11 -31.9245      12 -31.9235      13 -31.9245      14 -31.9235      15 -31.9197
      16 -31.9245      17 -31.9245      18 -31.9235      19 -31.9197      20 -31.9245
      21 -31.9235      22 -31.9186      23 -31.9245      24 -31.9235      25 -31.9235
      26 -31.9245      27 -31.9245      28 -31.9197      29 -31.9186      30 -31.9235
      31 -31.9235      32 -31.9245      33 -31.8894      34 -88.4692      35 -88.4476
      36 -88.4635      37 -88.4692      38 -88.4692      39 -88.4476      40 -88.4635
      41 -88.4692      42 -88.4584      43 -88.4667      44 -88.4667      45 -88.4584
      46 -88.4667      47 -88.4584      48 -88.4584      49 -88.4667      50 -88.4692
      51 -88.4692      52 -88.4635      53 -88.4635      54 -88.4476      55 -88.4476
      56 -88.4692      57 -88.4692      58 -88.4635      59 -88.4692      60 -88.4635
      61 -88.4692      62 -88.4692      63 -88.4476      64 -88.4692      65 -88.4476
 
 
 
 E-fermi :   5.1787     XC(G=0):  -7.1625     alpha+bet : -7.2837


 k-point     1 :       0.0000    0.0000    0.0000
  band No.  band energies     occupation 
      1     -11.2524      1.00000
      2     -10.9915      1.00000
      3     -10.9915      1.00000
      4     -10.9726      1.00000
      5     -10.9726      1.00000
      6     -10.9726      1.00000
      7     -10.9527      1.00000
      8     -10.8578      1.00000
      9     -10.8575      1.00000
     10     -10.8575      1.00000
     11     -10.8452      1.00000
     12     -10.8452      1.00000
     13     -10.8408      1.00000
     14     -10.8405      1.00000
     15     -10.8402      1.00000
     16     -10.8310      1.00000
     17     -10.8297      1.00000
     18     -10.8289      1.00000
     19     -10.8285      1.00000
     20     -10.8230      1.00000
     21     -10.7986      1.00000
     22     -10.7982      1.00000
     23     -10.7976      1.00000
     24     -10.7244      1.00000
     25     -10.7101      1.00000
     26     -10.7101      1.00000
     27     -10.6943      1.00000
     28     -10.6942      1.00000
     29     -10.6941      1.00000
     30     -10.6926      1.00000
     31     -10.6875      1.00000
     32     -10.6875      1.00000
     33     -10.4808      1.00000
     34     -10.2003      1.00000
     35     -10.2003      1.00000
     36     -10.1827      1.00000
     37     -10.1827      1.00000
     38     -10.1827      1.00000
     39     -10.1581      1.00000
     40     -10.0547      1.00000
     41     -10.0546      1.00000
     42     -10.0546      1.00000
     43     -10.0408      1.00000
     44     -10.0407      1.00000
     45     -10.0390      1.00000
     46     -10.0388      1.00000
     47     -10.0382      1.00000
     48     -10.0294      1.00000
     49     -10.0287      1.00000
     50     -10.0282      1.00000
     51     -10.0273      1.00000
     52     -10.0179      1.00000
     53      -9.9860      1.00000
     54      -9.9857      1.00000
     55      -9.9851      1.00000
     56      -9.9088      1.00000
     57      -9.8965      1.00000
     58      -9.8965      1.00000
     59      -9.8797      1.00000
     60      -9.8760      1.00000
     61      -9.8759      1.00000
     62      -9.8753      1.00000
     63      -9.8631      1.00000
     64      -9.8631      1.00000
     65      -7.7769      1.00000
     66      -7.7522      1.00000
     67      -7.7270      1.00000
     68      -7.7125      1.00000
     69      -7.7040      1.00000
     70      -7.6761      1.00000
     71      -7.6613      1.00000
     72      -7.6600      1.00000
     73      -7.6478      1.00000
     74      -7.6439      1.00000
     75      -7.6410      1.00000
     76      -7.6370      1.00000
     77      -7.6366      1.00000
     78      -7.6347      1.00000
     79      -7.6318      1.00000
     80      -7.6308      1.00000
     81      -7.6235      1.00000
     82      -7.6141      1.00000
     83      -7.6127      1.00000
     84      -7.6077      1.00000
     85      -7.6046      1.00000
     86      -7.6005      1.00000
     87      -7.5906      1.00000
     88      -7.5899      1.00000
     89      -7.5897      1.00000
     90      -7.5773      1.00000
     91      -7.5772      1.00000
     92      -7.5737      1.00000
     93      -7.5695      1.00000
     94      -7.5662      1.00000
     95      -7.5648      1.00000
     96      -7.5608      1.00000
     97      -7.5581      1.00000
     98      -7.5580      1.00000
     99      -7.5429      1.00000
    100      -7.5320      1.00000
    101      -7.5298      1.00000
    102      -7.5136      1.00000
    103      -7.5113      1.00000
    104      -7.5100      1.00000
    105      -7.5059      1.00000
    106      -7.5021      1.00000
    107      -7.5008      1.00000
    108      -7.4958      1.00000
    109      -7.4941      1.00000
    110      -7.4923      1.00000
    111      -7.4876      1.00000
    112      -7.4849      1.00000
    113      -7.4749      1.00000
    114      -7.4679      1.00000
    115      -7.4675      1.00000
    116      -7.4664      1.00000
    117      -7.4631      1.00000
    118      -7.4585      1.00000
    119      -7.4552      1.00000
    120      -7.4538      1.00000
    121      -7.4535      1.00000
    122      -7.4512      1.00000
    123      -7.4453      1.00000
    124      -7.4408      1.00000
    125      -7.4365      1.00000
    126      -7.4315      1.00000
    127      -7.4295      1.00000
    128      -7.4257      1.00000
    129      -7.4226      1.00000
    130      -7.4164      1.00000
    131      -7.4159      1.00000
    132      -7.4147      1.00000
    133      -7.4133      1.00000
    134      -7.4055      1.00000
    135      -7.4046      1.00000
    136      -7.3952      1.00000
    137      -7.3924      1.00000
    138      -7.3917      1.00000
    139      -7.3788      1.00000
    140      -7.3603      1.00000
    141      -7.3360      1.00000
    142      -7.3137      1.00000
    143      -7.3124      1.00000
    144      -7.3053      1.00000
    145      -7.2985      1.00000
    146      -7.2901      1.00000
    147      -7.2894      1.00000
    148      -7.2861      1.00000
    149      -7.2774      1.00000
    150      -7.2764      1.00000
    151      -7.2723      1.00000
    152      -7.2672      1.00000
    153      -7.2655      1.00000
    154      -7.2640      1.00000
    155      -7.2529      1.00000
    156      -7.2452      1.00000
    157      -7.2432      1.00000
    158      -7.2375      1.00000
    159      -7.2343      1.00000
    160      -7.2283      1.00000
    161      -7.2257      1.00000
    162      -7.2188      1.00000
    163      -7.2183      1.00000
    164      -7.2134      1.00000
    165      -7.2012      1.00000
    166      -7.2008      1.00000
    167      -7.1973      1.00000
    168      -7.1964      1.00000
    169      -7.1941      1.00000
    170      -7.1891      1.00000
    171      -7.1816      1.00000
    172      -7.1781      1.00000
    173      -7.1729      1.00000
    174      -7.1670      1.00000
    175      -7.1609      1.00000
    176      -7.1607      1.00000
    177      -7.1539      1.00000
    178      -7.1496      1.00000
    179      -7.1456      1.00000
    180      -7.1417      1.00000
    181      -7.1397      1.00000
    182      -7.1392      1.00000
    183      -7.1370      1.00000
    184      -7.1335      1.00000
    185      -7.1329      1.00000
    186      -7.1325      1.00000
    187      -7.1126      1.00000
    188      -7.1125      1.00000
    189      -7.1113      1.00000
    190      -7.0941      1.00000
    191      -7.0864      1.00000
    192      -7.0694      1.00000
    193      -7.0488      1.00000
    194      -7.0454      1.00000
    195      -7.0417      1.00000
    196      -6.9853      1.00000
    197      -6.9834      1.00000
    198      -6.9825      1.00000
    199      -6.9806      1.00000
    200      -6.9727      1.00000
    201      -6.9726      1.00000
    202      -6.9629      1.00000
    203      -6.9599      1.00000
    204      -6.9507      1.00000
    205      -6.9393      1.00000
    206      -6.9336      1.00000
    207      -6.9333      1.00000
    208      -6.9248      1.00000
    209      -6.9193      1.00000
    210      -6.9172      1.00000
    211      -6.9104      1.00000
    212      -6.9011      1.00000
    213      -6.8938      1.00000
    214      -6.8405      1.00000
    215      -6.8328      1.00000
    216      -6.8303      1.00000
    217      -6.7809      1.00000
    218      -6.7713      1.00000
    219      -6.7668      1.00000
    220      -6.7544      1.00000
    221      -6.7488      1.00000
    222      -6.7388      1.00000
    223      -6.7341      1.00000
    224      -6.7327      1.00000
    225      -6.7260      1.00000
    226      -6.7174      1.00000
    227      -6.6822      1.00000
    228      -6.6671      1.00000
    229      -6.6628      1.00000
    230      -6.6007      1.00000
    231      -6.5952      1.00000
    232      -6.5745      1.00000
    233      -6.5500      1.00000
    234      -6.5474      1.00000
    235      -6.5360      1.00000
    236      -6.5313      1.00000
    237      -6.5272      1.00000
    238      -6.5266      1.00000
    239      -6.5256      1.00000
    240      -6.5213      1.00000
    241      -6.5167      1.00000
    242      -6.5149      1.00000
    243      -6.5104      1.00000
    244      -6.5100      1.00000
    245      -6.5062      1.00000
    246      -6.5056      1.00000
    247      -6.4965      1.00000
    248      -6.4941      1.00000
    249      -6.4886      1.00000
    250      -6.4876      1.00000
    251      -6.4848      1.00000
    252      -6.4828      1.00000
    253      -6.4764      1.00000
    254      -6.4725      1.00000
    255      -6.4691      1.00000
    256      -6.4652      1.00000
    257      -6.4559      1.00000
    258      -6.4536      1.00000
    259      -6.4531      1.00000
    260      -6.4530      1.00000
    261      -6.4275      1.00000
    262      -6.4258      1.00000
    263      -6.4226      1.00000
    264      -6.4131      1.00000
    265      -6.4046      1.00000
    266      -6.3994      1.00000
    267      -6.3986      1.00000
    268      -6.3973      1.00000
    269      -6.3964      1.00000
    270      -6.3922      1.00000
    271      -6.3922      1.00000
    272      -6.3902      1.00000
    273      -6.3826      1.00000
    274      -6.3818      1.00000
    275      -6.3801      1.00000
    276      -6.3747      1.00000
    277      -6.3718      1.00000
    278      -6.3608      1.00000
    279      -6.3440      1.00000
    280      -6.3404      1.00000
    281      -6.3386      1.00000
    282      -6.3348      1.00000
    283      -6.3346      1.00000
    284      -6.3297      1.00000
    285      -6.3295      1.00000
    286      -6.3258      1.00000
    287      -6.3246      1.00000
    288      -6.3204      1.00000
    289      -6.3126      1.00000
    290      -6.3124      1.00000
    291      -6.3084      1.00000
    292      -6.3024      1.00000
    293      -6.3018      1.00000
    294      -6.2957      1.00000
    295      -6.2855      1.00000
    296      -6.2769      1.00000
    297      -6.2768      1.00000
    298      -6.2758      1.00000
    299      -6.2750      1.00000
    300      -6.2698      1.00000
    301      -6.2611      1.00000
    302      -6.2590      1.00000
    303      -6.2584      1.00000
    304      -6.2390      1.00000
    305      -6.2382      1.00000
    306      -6.2340      1.00000
    307      -6.2216      1.00000
    308      -6.2206      1.00000
    309      -6.2095      1.00000
    310      -6.2058      1.00000
    311      -6.1972      1.00000
    312      -6.1954      1.00000
    313      -6.1931      1.00000
    314      -6.1926      1.00000
    315      -6.1846      1.00000
    316      -6.1795      1.00000
    317      -6.1768      1.00000
    318      -6.1744      1.00000
    319      -6.1707      1.00000
    320      -6.1534      1.00000
    321      -6.1473      1.00000
    322      -6.1381      1.00000
    323      -6.1319      1.00000
    324      -6.1298      1.00000
    325      -6.1258      1.00000
    326      -6.1232      1.00000
    327      -6.1219      1.00000
    328      -6.1217      1.00000
    329      -6.1202      1.00000
    330      -6.1198      1.00000
    331      -6.1193      1.00000
    332      -6.1181      1.00000
    333      -6.1148      1.00000
    334      -6.1130      1.00000
    335      -6.1068      1.00000
    336      -6.1011      1.00000
    337      -6.0990      1.00000
    338      -6.0985      1.00000
    339      -6.0983      1.00000
    340      -6.0883      1.00000
    341      -6.0860      1.00000
    342      -6.0779      1.00000
    343      -6.0724      1.00000
    344      -6.0705      1.00000
    345      -6.0681      1.00000
    346      -6.0676      1.00000
    347      -6.0668      1.00000
    348      -6.0651      1.00000
    349      -6.0625      1.00000
    350      -6.0620      1.00000
    351      -6.0593      1.00000
    352      -6.0510      1.00000
    353      -6.0493      1.00000
    354      -6.0332      1.00000
    355      -6.0322      1.00000
    356      -6.0252      1.00000
    357      -6.0241      1.00000
    358      -6.0239      1.00000
    359      -6.0236      1.00000
    360      -6.0223      1.00000
    361      -6.0218      1.00000
    362      -6.0196      1.00000
    363      -6.0131      1.00000
    364      -6.0079      1.00000
    365      -6.0074      1.00000
    366      -5.9954      1.00000
    367      -5.9886      1.00000
    368      -5.9832      1.00000
    369      -5.9734      1.00000
    370      -5.9576      1.00000
    371      -5.9244      1.00000
    372      -5.9222      1.00000
    373      -5.9203      1.00000
    374      -5.9053      1.00000
    375      -5.8756      1.00000
    376      -5.8746      1.00000
    377      -5.8538      1.00000
    378      -5.8436      1.00000
    379      -5.8079      1.00000
    380      -5.8068      1.00000
    381      -5.8030      1.00000
    382      -5.7989      1.00000
    383      -5.7882      1.00000
    384      -5.7682      1.00000
    385      -5.7542      1.00000
    386      -5.7246      1.00000
    387      -5.7143      1.00000
    388      -5.7128      1.00000
    389      -5.6967      1.00000
    390      -5.6946      1.00000
    391      -5.6917      1.00000
    392      -5.5939      1.00000
    393      -5.5880      1.00000
    394      -5.5827      1.00000
    395      -3.8097      1.00000
    396      -3.4475      1.00000
    397      -3.4455      1.00000
    398      -3.4451      1.00000
    399      -3.2979      1.00000
    400      -3.2948      1.00000
    401      -3.2913      1.00000
    402      -3.2570      1.00000
    403      -3.2383      1.00000
    404      -3.2172      1.00000
    405      -3.1222      1.00000
    406      -3.0940      1.00000
    407      -3.0778      1.00000
    408      -3.0611      1.00000
    409      -3.0021      1.00000
    410      -2.7983      1.00000
    411      -2.7966      1.00000
    412      -2.7953      1.00000
    413      -2.7942      1.00000
    414      -2.7782      1.00000
    415      -2.7718      1.00000
    416      -2.7231      1.00000
    417      -2.7224      1.00000
    418      -2.7088      1.00000
    419      -2.7010      1.00000
    420      -2.6796      1.00000
    421      -2.6379      1.00000
    422      -2.6262      1.00000
    423      -2.6233      1.00000
    424      -2.6201      1.00000
    425      -2.6108      1.00000
    426      -2.5914      1.00000
    427      -2.5414      1.00000
    428      -2.5241      1.00000
    429      -2.5034      1.00000
    430      -2.3751      1.00000
    431      -2.3560      1.00000
    432      -2.3401      1.00000
    433      -2.2968      1.00000
    434      -2.1040      1.00000
    435      -2.0792      1.00000
    436      -2.0688      1.00000
    437      -2.0178      1.00000
    438      -2.0068      1.00000
    439      -2.0030      1.00000
    440      -1.9924      1.00000
    441      -1.9719      1.00000
    442      -1.9391      1.00000
    443      -1.9142      1.00000
    444      -1.8988      1.00000
    445      -1.7939      1.00000
    446      -1.6390      1.00000
    447      -1.6299      1.00000
    448      -1.6281      1.00000
    449      -1.6169      1.00000
    450      -1.6160      1.00000
    451      -1.6125      1.00000
    452      -1.6119      1.00000
    453      -1.6113      1.00000
    454      -1.5127      1.00000
    455      -1.4872      1.00000
    456      -1.4568      1.00000
    457      -1.3818      1.00000
    458      -1.3430      1.00000
    459      -1.3121      1.00000
    460      -1.2980      1.00000
    461      -1.2384      1.00000
    462      -1.2316      1.00000
    463      -1.2157      1.00000
    464      -1.2081      1.00000
    465      -1.2057      1.00000
    466      -1.1932      1.00000
    467      -1.1800      1.00000
    468      -1.1705      1.00000
    469      -1.1582      1.00000
    470      -1.1515      1.00000
    471      -1.1390      1.00000
    472      -1.1045      1.00000
    473      -1.1027      1.00000
    474      -1.0929      1.00000
    475      -1.0899      1.00000
    476      -1.0700      1.00000
    477      -1.0632      1.00000
    478      -1.0545      1.00000
    479      -0.9555      1.00000
    480      -0.9552      1.00000
    481      -0.9537      1.00000
    482      -0.9371      1.00000
    483      -0.9367      1.00000
    484      -0.9086      1.00000
    485      -0.9035      1.00000
    486      -0.8779      1.00000
    487      -0.7674      1.00000
    488      -0.7236      1.00000
    489      -0.7212      1.00000
    490      -0.7001      1.00000
    491      -0.6501      1.00000
    492      -0.6259      1.00000
    493      -0.5981      1.00000
    494      -0.5947      1.00000
    495      -0.5769      1.00000
    496      -0.5615      1.00000
    497      -0.4749      1.00000
    498      -0.4698      1.00000
    499      -0.4617      1.00000
    500      -0.4524      1.00000
    501      -0.4505      1.00000
    502      -0.4482      1.00000
    503      -0.4450      1.00000
    504      -0.4329      1.00000
    505      -0.4262      1.00000
    506      -0.4186      1.00000
    507      -0.4078      1.00000
    508      -0.3715      1.00000
    509      -0.3627      1.00000
    510      -0.3407      1.00000
    511      -0.3002      1.00000
    512      -0.2873      1.00000
    513      -0.2684      1.00000
    514      -0.2669      1.00000
    515      -0.2641      1.00000
    516      -0.2575      1.00000
    517      -0.2450      1.00000
    518      -0.2445      1.00000
    519      -0.2345      1.00000
    520      -0.1433      1.00000
    521      -0.1114      1.00000
    522      -0.0953      1.00000
    523      -0.0900      1.00000
    524      -0.0750      1.00000
    525      -0.0719      1.00000
    526      -0.0681      1.00000
    527      -0.0626      1.00000
    528      -0.0592      1.00000
    529      -0.0548      1.00000
    530      -0.0278      1.00000
    531      -0.0263      1.00000
    532      -0.0263      1.00000
    533       0.1153      1.00000
    534       0.1162      1.00000
    535       0.1195      1.00000
    536       0.1240      1.00000
    537       0.1301      1.00000
    538       0.1321      1.00000
    539       0.1395      1.00000
    540       0.1488      1.00000
    541       0.1515      1.00000
    542       0.1522      1.00000
    543       0.1567      1.00000
    544       0.1636      1.00000
    545       0.1754      1.00000
    546       0.1809      1.00000
    547       0.1933      1.00000
    548       0.3867      1.00000
    549       0.4231      1.00000
    550       0.5221      1.00000
    551       0.5508      1.00000
    552       0.5643      1.00000
    553       0.5712      1.00000
    554       0.5758      1.00000
    555       0.5834      1.00000
    556       0.6308      1.00000
    557       0.6687      1.00000
    558       0.7460      1.00000
    559       0.7726      1.00000
    560       0.7875      1.00000
    561       0.7948      1.00000
    562       0.8005      1.00000
    563       0.8030      1.00000
    564       0.9083      1.00000
    565       0.9125      1.00000
    566       0.9141      1.00000
    567       0.9148      1.00000
    568       0.9227      1.00000
    569       0.9237      1.00000
    570       0.9267      1.00000
    571       0.9323      1.00000
    572       0.9362      1.00000
    573       0.9369      1.00000
    574       0.9453      1.00000
    575       0.9518      1.00000
    576       0.9542      1.00000
    577       0.9635      1.00000
    578       0.9813      1.00000
    579       1.0894      1.00000
    580       1.0906      1.00000
    581       1.1017      1.00000
    582       1.1403      1.00000
    583       1.2120      1.00000
    584       1.6394      1.00000
    585       1.8493      1.00000
    586       2.0108      1.00000
    587       2.2264      1.00000
    588       2.9322      1.00000
    589       3.2477      1.00000
    590       3.7894      0.97194
    591       3.7916      0.97110
    592       3.7926      0.97096
    593       3.7929      0.30163
    594       3.9279      0.00536
    595       4.3295      0.00000
    596       4.3299      0.00000
    597       4.3309      0.00000
    598       4.4440      0.00000
    599       4.6783      0.00000
    600       4.6783      0.00000
    601       4.7389      0.00000
    602       4.7431      0.00000
    603       4.7465      0.00000
    604       4.8548      0.00000
    605       4.8665      0.00000
    606       4.8753      0.00000
    607       4.9184      0.00000
    608       5.0035      0.00000
    609       5.0872      0.00000
    610       5.0872      0.00000
    611       5.0993      0.00000
    612       5.1103      0.00000
    613       5.1143      0.00000
    614       5.1163      0.00000
    615       5.1164      0.00000
    616       5.2007      0.00000
    617       5.2423      0.00000
    618       5.2478      0.00000
    619       5.2583      0.00000
    620       5.2712      0.00000
    621       5.2756      0.00000
    622       5.3065      0.00000
    623       5.3122      0.00000
    624       5.3135      0.00000
    625       5.3135      0.00000
    626       5.3238      0.00000
    627       5.3246      0.00000
    628       5.3253      0.00000
    629       5.3259      0.00000
    630       5.3540      0.00000
    631       5.3602      0.00000
    632       5.3643      0.00000
    633       5.3867      0.00000
    634       5.5234      0.00000
    635       5.5597      0.00000
    636       5.5615      0.00000
    637       5.5947      0.00000
    638       5.6838      0.00000
    639       5.6846      0.00000
    640       5.6912      0.00000
    641       5.7061      0.00000
    642       5.7087      0.00000
    643       5.7364      0.00000
    644       5.7372      0.00000
    645       5.7566      0.00000
    646       5.7846      0.00000
    647       5.8094      0.00000
    648       5.8094      0.00000
    649       5.8263      0.00000
    650       5.8325      0.00000
    651       5.8373      0.00000
    652       5.8554      0.00000
    653       5.8557      0.00000
    654       5.8877      0.00000
    655       5.8893      0.00000
    656       5.9003      0.00000
    657       5.9265      0.00000
    658       6.1665      0.00000
    659       6.2221      0.00000
    660       6.2938      0.00000
    661       6.3771      0.00000
    662       6.4715      0.00000
    663       6.5128      0.00000
    664       6.5156      0.00000
    665       6.5398      0.00000
    666       6.5507      0.00000
    667       6.5577      0.00000
    668       6.5996      0.00000
    669       6.6128      0.00000
    670       6.6296      0.00000
    671       6.6986      0.00000
    672       6.7132      0.00000
    673       6.7595      0.00000
    674       6.7814      0.00000
    675       6.9361      0.00000
    676       6.9797      0.00000
    677       7.0262      0.00000
    678       7.0380      0.00000
    679       7.0564      0.00000
    680       7.0870      0.00000
    681       7.1045      0.00000
    682       7.1373      0.00000
    683       7.1403      0.00000
    684       7.1436      0.00000
    685       7.1671      0.00000
    686       7.1728      0.00000
    687       7.1762      0.00000
    688       7.2129      0.00000
    689       7.2159      0.00000
    690       7.2334      0.00000
    691       7.2414      0.00000
    692       7.2421      0.00000
    693       7.2629      0.00000
    694       7.2710      0.00000
    695       7.2853      0.00000
    696       7.2921      0.00000
    697       7.2956      0.00000
    698       7.3007      0.00000
    699       7.3033      0.00000
    700       7.3083      0.00000
    701       7.3324      0.00000
    702       7.3328      0.00000
    703       7.3390      0.00000
    704       7.3585      0.00000
    705       7.3597      0.00000
    706       7.3803      0.00000
    707       7.3855      0.00000
    708       7.4008      0.00000
    709       7.4201      0.00000
    710       7.4561      0.00000
    711       7.4729      0.00000
    712       7.5128      0.00000
    713       7.5334      0.00000
    714       7.5439      0.00000
    715       7.5615      0.00000
    716       7.6021      0.00000
    717       7.6032      0.00000
    718       7.6127      0.00000
    719       7.6158      0.00000
    720       7.6187      0.00000
    721       7.6226      0.00000
    722       7.6419      0.00000
    723       7.7148      0.00000
    724       7.7171      0.00000
    725       7.7260      0.00000
    726       7.7356      0.00000
    727       7.7422      0.00000
    728       7.7458      0.00000
    729       7.7823      0.00000
    730       7.7853      0.00000
    731       7.7994      0.00000
    732       7.8021      0.00000
    733       7.8025      0.00000
    734       7.8072      0.00000
    735       7.8283      0.00000
    736       7.8353      0.00000
    737       7.8582      0.00000
    738       7.8610      0.00000
    739       7.8831      0.00000
    740       7.8907      0.00000
    741       7.9081      0.00000
    742       7.9318      0.00000
    743       7.9359      0.00000
    744       7.9682      0.00000
    745       7.9891      0.00000
    746       8.0044      0.00000
    747       8.0132      0.00000
    748       8.0893      0.00000
    749       8.0920      0.00000
    750       8.0950      0.00000
    751       8.0998      0.00000
    752       8.1036      0.00000
    753       8.1054      0.00000
    754       8.1089      0.00000
    755       8.1182      0.00000
    756       8.1253      0.00000
    757       8.1317      0.00000
    758       8.1363      0.00000
    759       8.1392      0.00000
    760       8.1823      0.00000
    761       8.2315      0.00000
    762       8.2379      0.00000
    763       8.2412      0.00000
    764       8.2455      0.00000
    765       8.2521      0.00000
    766       8.2761      0.00000
    767       8.2812      0.00000
    768       8.2947      0.00000
    769       8.2967      0.00000
    770       8.3121      0.00000
    771       8.3370      0.00000
    772       8.3496      0.00000
    773       8.3782      0.00000
    774       8.3909      0.00000
    775       8.4654      0.00000
    776       8.5756      0.00000

 k-point     2 :       0.5000    0.0000    0.0000
  band No.  band energies     occupation 
      1     -11.1732      1.00000
      2     -11.1651      1.00000
      3     -10.9525      1.00000
      4     -10.9475      1.00000
      5     -10.9416      1.00000
      6     -10.9398      1.00000
      7     -10.9308      1.00000
      8     -10.9244      1.00000
      9     -10.9226      1.00000
     10     -10.9162      1.00000
     11     -10.8448      1.00000
     12     -10.8442      1.00000
     13     -10.8366      1.00000
     14     -10.8363      1.00000
     15     -10.8292      1.00000
     16     -10.8279      1.00000
     17     -10.8194      1.00000
     18     -10.8190      1.00000
     19     -10.7826      1.00000
     20     -10.7769      1.00000
     21     -10.7579      1.00000
     22     -10.7569      1.00000
     23     -10.7445      1.00000
     24     -10.7428      1.00000
     25     -10.7294      1.00000
     26     -10.7285      1.00000
     27     -10.7197      1.00000
     28     -10.7183      1.00000
     29     -10.7114      1.00000
     30     -10.6965      1.00000
     31     -10.6931      1.00000
     32     -10.6878      1.00000
     33     -10.3989      1.00000
     34     -10.3867      1.00000
     35     -10.1594      1.00000
     36     -10.1508      1.00000
     37     -10.1487      1.00000
     38     -10.1472      1.00000
     39     -10.1361      1.00000
     40     -10.1299      1.00000
     41     -10.1284      1.00000
     42     -10.1167      1.00000
     43     -10.0428      1.00000
     44     -10.0425      1.00000
     45     -10.0315      1.00000
     46     -10.0311      1.00000
     47     -10.0281      1.00000
     48     -10.0252      1.00000
     49     -10.0107      1.00000
     50     -10.0103      1.00000
     51      -9.9744      1.00000
     52      -9.9704      1.00000
     53      -9.9464      1.00000
     54      -9.9438      1.00000
     55      -9.9340      1.00000
     56      -9.9327      1.00000
     57      -9.9159      1.00000
     58      -9.9087      1.00000
     59      -9.9027      1.00000
     60      -9.9016      1.00000
     61      -9.8978      1.00000
     62      -9.8799      1.00000
     63      -9.8705      1.00000
     64      -9.8656      1.00000
     65      -7.7735      1.00000
     66      -7.7525      1.00000
     67      -7.7287      1.00000
     68      -7.7002      1.00000
     69      -7.6941      1.00000
     70      -7.6887      1.00000
     71      -7.6791      1.00000
     72      -7.6738      1.00000
     73      -7.6624      1.00000
     74      -7.6519      1.00000
     75      -7.6447      1.00000
     76      -7.6405      1.00000
     77      -7.6342      1.00000
     78      -7.6221      1.00000
     79      -7.6170      1.00000
     80      -7.6137      1.00000
     81      -7.6126      1.00000
     82      -7.6096      1.00000
     83      -7.6061      1.00000
     84      -7.6042      1.00000
     85      -7.6017      1.00000
     86      -7.5964      1.00000
     87      -7.5917      1.00000
     88      -7.5909      1.00000
     89      -7.5882      1.00000
     90      -7.5861      1.00000
     91      -7.5826      1.00000
     92      -7.5798      1.00000
     93      -7.5768      1.00000
     94      -7.5692      1.00000
     95      -7.5632      1.00000
     96      -7.5551      1.00000
     97      -7.5522      1.00000
     98      -7.5497      1.00000
     99      -7.5385      1.00000
    100      -7.5291      1.00000
    101      -7.5271      1.00000
    102      -7.5251      1.00000
    103      -7.5169      1.00000
    104      -7.5059      1.00000
    105      -7.5037      1.00000
    106      -7.5014      1.00000
    107      -7.4993      1.00000
    108      -7.4979      1.00000
    109      -7.4934      1.00000
    110      -7.4900      1.00000
    111      -7.4851      1.00000
    112      -7.4823      1.00000
    113      -7.4807      1.00000
    114      -7.4774      1.00000
    115      -7.4739      1.00000
    116      -7.4731      1.00000
    117      -7.4679      1.00000
    118      -7.4628      1.00000
    119      -7.4581      1.00000
    120      -7.4505      1.00000
    121      -7.4485      1.00000
    122      -7.4458      1.00000
    123      -7.4441      1.00000
    124      -7.4412      1.00000
    125      -7.4365      1.00000
    126      -7.4339      1.00000
    127      -7.4311      1.00000
    128      -7.4236      1.00000
    129      -7.4226      1.00000
    130      -7.4211      1.00000
    131      -7.4189      1.00000
    132      -7.4177      1.00000
    133      -7.4015      1.00000
    134      -7.3972      1.00000
    135      -7.3927      1.00000
    136      -7.3854      1.00000
    137      -7.3696      1.00000
    138      -7.3630      1.00000
    139      -7.3574      1.00000
    140      -7.3507      1.00000
    141      -7.3437      1.00000
    142      -7.3416      1.00000
    143      -7.3357      1.00000
    144      -7.3259      1.00000
    145      -7.3164      1.00000
    146      -7.3041      1.00000
    147      -7.2996      1.00000
    148      -7.2868      1.00000
    149      -7.2788      1.00000
    150      -7.2762      1.00000
    151      -7.2691      1.00000
    152      -7.2601      1.00000
[...]
 l=   3
     0.0000000     0.0000000     0.0000000     0.0000000     0.0000000     0.0000000     0.0000000
     0.0000000     0.0000000     0.0000000     0.0000000     0.0000000     0.0000000     0.0000000
     0.0000000     0.0000000     0.0000000     0.0000000     0.0000000     0.0000000     0.0000000
     0.0000000     0.0000000     0.0000000     0.0000000     0.0000000     0.0000000     0.0000000
     0.0000000     0.0000000     0.0000000     0.0000000     0.0000000     0.0000000     0.0000000
     0.0000000     0.0000000     0.0000000     0.0000000     0.0000000     0.0000000     0.0000000
     0.0000000     0.0000000     0.0000000     0.0000000     0.0000000     0.0000000     0.0000000

 Ion:   61  E_soc:     -0.1803309
 l=   1
     0.0000000    -0.0299335    -0.0299882
    -0.0299335     0.0000000    -0.0299504
    -0.0299882    -0.0299504     0.0000000
 l=   2
     0.0000000    -0.0000322     0.0000000    -0.0000331    -0.0000676
    -0.0000322     0.0000000    -0.0000486    -0.0000342    -0.0000159
     0.0000000    -0.0000486     0.0000000    -0.0000464     0.0000000
    -0.0000331    -0.0000342    -0.0000464     0.0000000    -0.0000154
    -0.0000676    -0.0000159     0.0000000    -0.0000154     0.0000000
 l=   3
     0.0000000     0.0000000     0.0000000     0.0000000     0.0000000     0.0000000     0.0000000
     0.0000000     0.0000000     0.0000000     0.0000000     0.0000000     0.0000000     0.0000000
     0.0000000     0.0000000     0.0000000     0.0000000     0.0000000     0.0000000     0.0000000
     0.0000000     0.0000000     0.0000000     0.0000000     0.0000000     0.0000000     0.0000000
     0.0000000     0.0000000     0.0000000     0.0000000     0.0000000     0.0000000     0.0000000
     0.0000000     0.0000000     0.0000000     0.0000000     0.0000000     0.0000000     0.0000000
     0.0000000     0.0000000     0.0000000     0.0000000     0.0000000     0.0000000     0.0000000

 Ion:   62  E_soc:     -0.1803579
 l=   1
     0.0000000    -0.0299912    -0.0299376
    -0.0299912     0.0000000    -0.0299565
    -0.0299376    -0.0299565     0.0000000
 l=   2
     0.0000000    -0.0000322     0.0000000    -0.0000342    -0.0000644
    -0.0000322     0.0000000    -0.0000500    -0.0000332    -0.0000176
     0.0000000    -0.0000500     0.0000000    -0.0000464     0.0000000
    -0.0000342    -0.0000332    -0.0000464     0.0000000    -0.0000155
    -0.0000644    -0.0000176     0.0000000    -0.0000155     0.0000000
 l=   3
     0.0000000     0.0000000     0.0000000     0.0000000     0.0000000     0.0000000     0.0000000
     0.0000000     0.0000000     0.0000000     0.0000000     0.0000000     0.0000000     0.0000000
     0.0000000     0.0000000     0.0000000     0.0000000     0.0000000     0.0000000     0.0000000
     0.0000000     0.0000000     0.0000000     0.0000000     0.0000000     0.0000000     0.0000000
     0.0000000     0.0000000     0.0000000     0.0000000     0.0000000     0.0000000     0.0000000
     0.0000000     0.0000000     0.0000000     0.0000000     0.0000000     0.0000000     0.0000000
     0.0000000     0.0000000     0.0000000     0.0000000     0.0000000     0.0000000     0.0000000

 Ion:   63  E_soc:     -0.1826176
 l=   1
     0.0000000    -0.0303977    -0.0304014
    -0.0303977     0.0000000    -0.0302504
    -0.0304014    -0.0302504     0.0000000
 l=   2
     0.0000000    -0.0000272     0.0000000    -0.0000299    -0.0000581
    -0.0000272     0.0000000    -0.0000432    -0.0000299    -0.0000148
     0.0000000    -0.0000432     0.0000000    -0.0000421     0.0000000
    -0.0000299    -0.0000299    -0.0000421     0.0000000    -0.0000140
    -0.0000581    -0.0000148     0.0000000    -0.0000140     0.0000000
 l=   3
     0.0000000     0.0000000     0.0000000     0.0000000     0.0000000     0.0000000     0.0000000
     0.0000000     0.0000000     0.0000000     0.0000000     0.0000000     0.0000000     0.0000000
     0.0000000     0.0000000     0.0000000     0.0000000     0.0000000     0.0000000     0.0000000
     0.0000000     0.0000000     0.0000000     0.0000000     0.0000000     0.0000000     0.0000000
     0.0000000     0.0000000     0.0000000     0.0000000     0.0000000     0.0000000     0.0000000
     0.0000000     0.0000000     0.0000000     0.0000000     0.0000000     0.0000000     0.0000000
     0.0000000     0.0000000     0.0000000     0.0000000     0.0000000     0.0000000     0.0000000

 Ion:   64  E_soc:     -0.1803356
 l=   1
     0.0000000    -0.0299900    -0.0299314
    -0.0299900     0.0000000    -0.0299530
    -0.0299314    -0.0299530     0.0000000
 l=   2
     0.0000000    -0.0000322     0.0000000    -0.0000342    -0.0000643
    -0.0000322     0.0000000    -0.0000501    -0.0000332    -0.0000175
     0.0000000    -0.0000501     0.0000000    -0.0000464     0.0000000
    -0.0000342    -0.0000332    -0.0000464     0.0000000    -0.0000155
    -0.0000643    -0.0000175     0.0000000    -0.0000155     0.0000000
 l=   3
     0.0000000     0.0000000     0.0000000     0.0000000     0.0000000     0.0000000     0.0000000
     0.0000000     0.0000000     0.0000000     0.0000000     0.0000000     0.0000000     0.0000000
     0.0000000     0.0000000     0.0000000     0.0000000     0.0000000     0.0000000     0.0000000
     0.0000000     0.0000000     0.0000000     0.0000000     0.0000000     0.0000000     0.0000000
     0.0000000     0.0000000     0.0000000     0.0000000     0.0000000     0.0000000     0.0000000
     0.0000000     0.0000000     0.0000000     0.0000000     0.0000000     0.0000000     0.0000000
     0.0000000     0.0000000     0.0000000     0.0000000     0.0000000     0.0000000     0.0000000

 Ion:   65  E_soc:     -0.1825024
 l=   1
     0.0000000    -0.0303688    -0.0303697
    -0.0303688     0.0000000    -0.0302530
    -0.0303697    -0.0302530     0.0000000
 l=   2
     0.0000000    -0.0000272     0.0000000    -0.0000299    -0.0000582
    -0.0000272     0.0000000    -0.0000433    -0.0000299    -0.0000148
     0.0000000    -0.0000433     0.0000000    -0.0000422     0.0000000
    -0.0000299    -0.0000299    -0.0000422     0.0000000    -0.0000141
    -0.0000582    -0.0000148     0.0000000    -0.0000141     0.0000000
 l=   3
     0.0000000     0.0000000     0.0000000     0.0000000     0.0000000     0.0000000     0.0000000
     0.0000000     0.0000000     0.0000000     0.0000000     0.0000000     0.0000000     0.0000000
     0.0000000     0.0000000     0.0000000     0.0000000     0.0000000     0.0000000     0.0000000
     0.0000000     0.0000000     0.0000000     0.0000000     0.0000000     0.0000000     0.0000000
     0.0000000     0.0000000     0.0000000     0.0000000     0.0000000     0.0000000     0.0000000
     0.0000000     0.0000000     0.0000000     0.0000000     0.0000000     0.0000000     0.0000000
     0.0000000     0.0000000     0.0000000     0.0000000     0.0000000     0.0000000     0.0000000
 


 total charge     
 
# of ion       s       p       d       tot
------------------------------------------
    1        0.412   0.275   9.422  10.109
    2        0.423   0.290   9.427  10.140
    3        0.423   0.290   9.427  10.140
    4        0.422   0.290   9.428  10.140
    5        0.423   0.290   9.427  10.140
    6        0.422   0.290   9.428  10.140
    7        0.422   0.290   9.428  10.140
    8        0.420   0.287   9.428  10.136
    9        0.423   0.290   9.427  10.140
   10        0.412   0.275   9.422  10.109
   11        0.422   0.290   9.428  10.140
   12        0.423   0.290   9.427  10.140
   13        0.422   0.290   9.428  10.140
   14        0.423   0.290   9.427  10.140
   15        0.420   0.287   9.428  10.136
   16        0.422   0.290   9.428  10.140
   17        0.423   0.290   9.428  10.141
   18        0.424   0.290   9.427  10.141
   19        0.421   0.287   9.428  10.137
   20        0.423   0.290   9.428  10.141
   21        0.424   0.290   9.427  10.141
   22        0.413   0.275   9.422  10.110
   23        0.423   0.290   9.428  10.141
   24        0.424   0.290   9.427  10.141
   25        0.423   0.290   9.427  10.140
   26        0.422   0.290   9.428  10.140
   27        0.422   0.290   9.428  10.140
   28        0.420   0.287   9.428  10.136
   29        0.412   0.275   9.422  10.109
   30        0.423   0.290   9.427  10.140
   31        0.423   0.290   9.427  10.140
   32        0.422   0.290   9.428  10.140
   33        0.589   0.183   9.424  10.196
   34        1.317   2.163   0.027   3.507
   35        1.328   2.129   0.026   3.483
   36        1.317   2.163   0.026   3.506
   37        1.317   2.163   0.027   3.507
   38        1.317   2.163   0.027   3.507
   39        1.328   2.129   0.026   3.483
   40        1.317   2.163   0.026   3.506
   41        1.317   2.163   0.027   3.507
   42        1.316   2.160   0.025   3.502
   43        1.317   2.155   0.026   3.498
   44        1.317   2.155   0.026   3.498
   45        1.316   2.160   0.025   3.502
   46        1.317   2.155   0.026   3.498
   47        1.316   2.160   0.025   3.502
   48        1.316   2.160   0.025   3.502
   49        1.317   2.155   0.026   3.498
   50        1.317   2.163   0.027   3.507
   51        1.317   2.163   0.027   3.507
   52        1.317   2.163   0.026   3.506
   53        1.317   2.163   0.026   3.506
   54        1.328   2.129   0.026   3.483
   55        1.328   2.129   0.026   3.483
   56        1.317   2.163   0.027   3.507
   57        1.317   2.163   0.027   3.507
   58        1.317   2.163   0.026   3.506
   59        1.317   2.163   0.027   3.507
   60        1.317   2.163   0.026   3.506
   61        1.317   2.163   0.027   3.507
   62        1.317   2.163   0.027   3.507
   63        1.328   2.129   0.026   3.483
   64        1.317   2.163   0.027   3.507
   65        1.328   2.129   0.026   3.483
--------------------------------------------------
tot         56.278  78.360 311.924 446.561
 


 magnetization (x)
 
# of ion       s       p       d       tot
------------------------------------------
    1       -0.002  -0.002   0.009   0.005
    2       -0.002  -0.002   0.007   0.003
    3       -0.002  -0.002   0.007   0.003
    4       -0.003  -0.002   0.007   0.002
    5       -0.002  -0.002   0.007   0.003
    6       -0.003  -0.002   0.007   0.002
    7       -0.003  -0.002   0.007   0.002
    8       -0.003  -0.003   0.007   0.001
    9       -0.002  -0.002   0.007   0.003
   10       -0.002  -0.002   0.009   0.005
   11       -0.003  -0.002   0.007   0.002
   12       -0.002  -0.002   0.007   0.003
   13       -0.003  -0.002   0.007   0.002
   14       -0.002  -0.002   0.007   0.003
   15       -0.003  -0.003   0.007   0.001
   16       -0.003  -0.002   0.007   0.002
   17       -0.002  -0.002   0.007   0.002
   18       -0.002  -0.002   0.007   0.003
   19       -0.002  -0.003   0.007   0.002
   20       -0.002  -0.002   0.007   0.002
   21       -0.002  -0.002   0.007   0.004
   22       -0.001  -0.002   0.009   0.006
   23       -0.002  -0.002   0.007   0.002
   24       -0.002  -0.002   0.007   0.004
   25       -0.002  -0.002   0.007   0.003
   26       -0.003  -0.002   0.007   0.002
   27       -0.003  -0.002   0.007   0.002
   28       -0.003  -0.003   0.007   0.001
   29       -0.002  -0.002   0.009   0.005
   30       -0.002  -0.002   0.007   0.003
   31       -0.002  -0.002   0.007   0.003
   32       -0.003  -0.002   0.007   0.002
   33        0.058  -0.002   0.006   0.061
   34        0.009   0.029  -0.000   0.038
   35        0.011   0.037   0.000   0.048
   36        0.009   0.028  -0.000   0.037
   37        0.009   0.029  -0.000   0.038
   38        0.009   0.029  -0.000   0.038
   39        0.011   0.037   0.000   0.048
   40        0.009   0.028  -0.000   0.037
   41        0.009   0.029  -0.000   0.038
   42        0.008   0.028  -0.000   0.036
   43        0.009   0.028  -0.000   0.037
   44        0.009   0.028  -0.000   0.037
   45        0.008   0.028  -0.000   0.036
   46        0.009   0.028  -0.000   0.037
   47        0.008   0.028  -0.000   0.036
   48        0.008   0.028  -0.000   0.036
   49        0.009   0.028  -0.000   0.037
   50        0.009   0.029  -0.000   0.038
   51        0.009   0.029  -0.000   0.038
   52        0.009   0.028  -0.000   0.037
   53        0.009   0.028  -0.000   0.037
   54        0.011   0.037   0.000   0.048
   55        0.011   0.037   0.000   0.048
   56        0.009   0.029  -0.000   0.038
   57        0.009   0.029  -0.000   0.038
   58        0.009   0.028  -0.000   0.037
   59        0.009   0.029  -0.000   0.038
   60        0.009   0.028  -0.000   0.037
   61        0.009   0.029  -0.000   0.038
   62        0.009   0.029  -0.000   0.038
   63        0.011   0.037   0.000   0.048
   64        0.009   0.029  -0.000   0.038
   65        0.011   0.037   0.000   0.048
--------------------------------------------------
tot          0.283   0.896   0.230   1.408
 


 magnetization (y)
 
# of ion       s       p       d       tot
------------------------------------------
    1       -0.002  -0.002   0.009   0.005
    2       -0.002  -0.002   0.007   0.003
    3       -0.002  -0.002   0.007   0.003
    4       -0.003  -0.002   0.007   0.002
    5       -0.002  -0.002   0.007   0.003
    6       -0.003  -0.002   0.007   0.002
    7       -0.003  -0.002   0.007   0.002
    8       -0.003  -0.003   0.007   0.001
    9       -0.002  -0.002   0.007   0.003
   10       -0.002  -0.002   0.009   0.005
   11       -0.003  -0.002   0.007   0.002
   12       -0.002  -0.002   0.007   0.003
   13       -0.003  -0.002   0.007   0.002
   14       -0.002  -0.002   0.007   0.003
   15       -0.003  -0.003   0.007   0.001
   16       -0.003  -0.002   0.007   0.002
   17       -0.002  -0.002   0.007   0.002
   18       -0.002  -0.002   0.007   0.004
   19       -0.002  -0.003   0.007   0.002
   20       -0.002  -0.002   0.007   0.002
   21       -0.002  -0.002   0.007   0.004
   22       -0.001  -0.002   0.009   0.006
   23       -0.002  -0.002   0.007   0.002
   24       -0.002  -0.002   0.007   0.003
   25       -0.002  -0.002   0.007   0.003
   26       -0.003  -0.002   0.007   0.002
   27       -0.003  -0.002   0.007   0.002
   28       -0.003  -0.003   0.007   0.001
   29       -0.002  -0.002   0.009   0.005
   30       -0.002  -0.002   0.007   0.003
   31       -0.002  -0.002   0.007   0.003
   32       -0.003  -0.002   0.007   0.002
   33        0.058  -0.002   0.006   0.061
   34        0.009   0.029  -0.000   0.038
   35        0.011   0.037   0.000   0.048
   36        0.009   0.028  -0.000   0.037
   37        0.009   0.029  -0.000   0.038
   38        0.009   0.029  -0.000   0.038
   39        0.011   0.037   0.000   0.048
   40        0.009   0.028  -0.000   0.037
   41        0.009   0.029  -0.000   0.038
   42        0.008   0.028  -0.000   0.036
   43        0.009   0.028  -0.000   0.037
   44        0.009   0.028  -0.000   0.037
   45        0.008   0.028  -0.000   0.036
   46        0.009   0.028  -0.000   0.037
   47        0.008   0.028  -0.000   0.036
   48        0.008   0.028  -0.000   0.036
   49        0.009   0.028  -0.000   0.037
   50        0.009   0.029  -0.000   0.038
   51        0.009   0.029  -0.000   0.038
   52        0.009   0.028  -0.000   0.037
   53        0.009   0.028  -0.000   0.037
   54        0.011   0.037   0.000   0.048
   55        0.011   0.037   0.000   0.048
   56        0.009   0.029  -0.000   0.038
   57        0.009   0.029  -0.000   0.038
   58        0.009   0.028  -0.000   0.037
   59        0.009   0.029  -0.000   0.038
   60        0.009   0.028  -0.000   0.037
   61        0.009   0.029  -0.000   0.038
   62        0.009   0.029  -0.000   0.038
   63        0.011   0.037   0.000   0.048
   64        0.009   0.029  -0.000   0.038
   65        0.011   0.037   0.000   0.048
--------------------------------------------------
tot          0.283   0.896   0.230   1.408
 


 magnetization (z)
 
# of ion       s       p       d       tot
------------------------------------------
    1       -0.002  -0.002   0.009   0.005
    2       -0.002  -0.002   0.007   0.003
    3       -0.002  -0.002   0.007   0.003
    4       -0.003  -0.002   0.007   0.002
    5       -0.002  -0.002   0.007   0.003
    6       -0.003  -0.002   0.007   0.002
    7       -0.003  -0.002   0.007   0.002
    8       -0.003  -0.003   0.007   0.001
    9       -0.002  -0.002   0.007   0.003
   10       -0.002  -0.002   0.009   0.005
   11       -0.003  -0.002   0.007   0.002
   12       -0.002  -0.002   0.007   0.003
   13       -0.003  -0.002   0.007   0.002
   14       -0.002  -0.002   0.007   0.003
   15       -0.003  -0.003   0.007   0.001
   16       -0.003  -0.002   0.007   0.002
   17       -0.002  -0.002   0.007   0.002
   18       -0.002  -0.002   0.007   0.004
   19       -0.002  -0.003   0.007   0.002
   20       -0.002  -0.002   0.007   0.002
   21       -0.002  -0.002   0.007   0.003
   22       -0.001  -0.002   0.009   0.006
   23       -0.002  -0.002   0.007   0.002
   24       -0.002  -0.002   0.007   0.004
   25       -0.002  -0.002   0.007   0.003
   26       -0.003  -0.002   0.007   0.002
   27       -0.003  -0.002   0.007   0.002
   28       -0.003  -0.003   0.007   0.001
   29       -0.002  -0.002   0.009   0.005
   30       -0.002  -0.002   0.007   0.003
   31       -0.002  -0.002   0.007   0.003
   32       -0.003  -0.002   0.007   0.002
   33        0.058  -0.002   0.006   0.061
   34        0.009   0.029  -0.000   0.038
   35        0.011   0.037   0.000   0.048
   36        0.009   0.028  -0.000   0.037
   37        0.009   0.029  -0.000   0.038
   38        0.009   0.029  -0.000   0.038
   39        0.011   0.037   0.000   0.048
   40        0.009   0.028  -0.000   0.037
   41        0.009   0.029  -0.000   0.038
   42        0.008   0.028  -0.000   0.036
   43        0.009   0.028  -0.000   0.037
   44        0.009   0.028  -0.000   0.037
   45        0.008   0.028  -0.000   0.036
   46        0.009   0.028  -0.000   0.037
   47        0.008   0.028  -0.000   0.036
   48        0.008   0.028  -0.000   0.036
   49        0.009   0.028  -0.000   0.037
   50        0.009   0.029  -0.000   0.038
   51        0.009   0.029  -0.000   0.038
   52        0.009   0.028  -0.000   0.037
   53        0.009   0.028  -0.000   0.037
   54        0.011   0.037   0.000   0.048
   55        0.011   0.037   0.000   0.048
   56        0.009   0.029  -0.000   0.038
   57        0.009   0.029  -0.000   0.038
   58        0.009   0.028  -0.000   0.037
   59        0.009   0.029  -0.000   0.038
   60        0.009   0.028  -0.000   0.037
   61        0.009   0.029  -0.000   0.038
   62        0.009   0.029  -0.000   0.038
   63        0.011   0.037   0.000   0.048
   64        0.009   0.029  -0.000   0.038
   65        0.011   0.037   0.000   0.048
--------------------------------------------------
tot          0.282   0.896   0.230   1.408
 

 total amount of memory used by VASP MPI-rank0   416213. kBytes
=======================================================================

   base      :      30000. kBytes
   nonl-proj :      13590. kBytes
   fftplans  :      24513. kBytes
   grid      :      27131. kBytes
   one-center:        373. kBytes
   HF        :        129. kBytes
   nonlr-proj:      10574. kBytes
   wavefun   :     309903. kBytes
 
  
  
 General timing and accounting informations for this job:
 ========================================================
  
                  Total CPU time used (sec):     9773.075
                            User time (sec):     9554.585
                          System time (sec):      218.490
                         Elapsed time (sec):     9983.945
  
                   Maximum memory used (kb):      718016.
                   Average memory used (kb):           0.
  
                          Minor page faults:       333761
                          Major page faults:            0
                 Voluntary context switches:         3025
