 vasp.5.4.4.18Apr17-6-g9f103f2a35 (build Nov 14 2020 21:33:54) complex           
 executed on        HPECrayEX-GNU date 2020.12.09  12:54:18
 running on 4096 total cores
 distrk:  each k-point on 2048 cores,    2 groups
 distr:  one band on NCORES_PER_BAND=  32 cores,   64 groups


--------------------------------------------------------------------------------------------------------


 INCAR:
 POTCAR:    PAW_PBE Cd 06Sep2000                  
 POTCAR:    PAW_PBE Te 08Apr2002                  

 ----------------------------------------------------------------------------- 
|                                                                             |
|           W    W    AA    RRRRR   N    N  II  N    N   GGGG   !!!           |
|           W    W   A  A   R    R  NN   N  II  NN   N  G    G  !!!           |
|           W    W  A    A  R    R  N N  N  II  N N  N  G       !!!           |
|           W WW W  AAAAAA  RRRRR   N  N N  II  N  N N  G  GGG   !            |
|           WW  WW  A    A  R   R   N   NN  II  N   NN  G    G                |
|           W    W  A    A  R    R  N    N  II  N    N   GGGG   !!!           |
|                                                                             |
|      You have enabled k-point parallelism (KPAR>1).                         |
|      This developmental code was originally  written by Paul Kent at ORNL,  |
|      and carefully double checked in Vienna.                                |
|      GW as well as linear response parallelism added by Martijn Marsman     |
|      and Georg Kresse.                                                      |
|      Carefully verify results versus KPAR=1.                                |
|      Report problems to Paul Kent and Vienna.                               |
|                                                                             |
 ----------------------------------------------------------------------------- 

 POTCAR:    PAW_PBE Cd 06Sep2000                  
   VRHFIN =Cd : s2 d10                                                          
   LEXCH  = PE                                                                  
   EATOM  =  1293.1815 eV,   95.0462 Ry                                         
                                                                                
   TITEL  = PAW_PBE Cd 06Sep2000                                                
   LULTRA =        F    use ultrasoft PP ?                                      
   IUNSCR =        1    unscreen: 0-lin 1-nonlin 2-no                           
   RPACOR =    2.000    partial core radius                                     
   POMASS =  112.411; ZVAL   =   12.000    mass and valenz                      
   RCORE  =    2.300    outmost cutoff radius                                   
   RWIGS  =    2.980; RWIGS  =    1.577    wigner-seitz radius (au A)           
   ENMAX  =  274.336; ENMIN  =  205.752 eV                                      
   RCLOC  =    2.054    cutoff for local pot                                    
   LCOR   =        T    correct aug charges                                     
   LPAW   =        T    paw PP                                                  
   EAUG   =  456.106                                                            
   DEXC   =    0.000                                                            
   RMAX   =    2.358    core radius for proj-oper                               
   RAUG   =    1.300    factor for augmentation sphere                          
   RDEP   =    2.450    radius for radial grids                                 
   RDEPT  =    1.955    core radius for aug-charge                              
                                                                                
   Atomic configuration                                                         
   12 entries                                                                   
     n  l   j            E        occ.                                          
     1  0  0.50    -26519.7817   2.0000                                         
     2  0  0.50     -3936.9612   2.0000                                         
     2  1  1.50     -3532.2230   6.0000                                         
     3  0  0.50      -733.7908   2.0000                                         
     3  1  1.50      -601.0792   6.0000                                         
     3  2  2.50      -393.5307  10.0000                                         
     4  0  0.50      -105.8977   2.0000                                         
     4  1  1.50       -66.9488   6.0000                                         
     4  2  2.50       -11.7331  10.0000                                         
     5  0  0.50        -5.6592   2.0000                                         
     5  1  0.50        -1.3606   0.0000                                         
     4  3  2.50        -1.3606   0.0000                                         
   Description                                                                  
     l       E           TYP  RCUT    TYP  RCUT                                 
     2    -11.7331479     23  2.300                                             
     2    -13.0937305     23  2.300                                             
     0     -5.6591502     23  2.300                                             
     0     -1.5561433     23  2.300                                             
     1     -2.7211652     23  2.300                                             
     1      8.3548275     23  2.300                                             
  local pseudopotential read in
  partial core-charges read in
  partial kinetic energy density read in
  atomic valenz-charges read in
  non local Contribution for L=           2  read in
    real space projection operators read in
  non local Contribution for L=           2  read in
    real space projection operators read in
  non local Contribution for L=           0  read in
    real space projection operators read in
  non local Contribution for L=           0  read in
    real space projection operators read in
  non local Contribution for L=           1  read in
    real space projection operators read in
  non local Contribution for L=           1  read in
    real space projection operators read in
    PAW grid and wavefunctions read in

   number of l-projection  operators is LMAX  =           6
   number of lm-projection operators is LMMAX =          18

 POTCAR:    PAW_PBE Te 08Apr2002                  
   VRHFIN =Te: s2p4                                                             
   LEXCH  = PE                                                                  
   EATOM  =   223.2721 eV,   16.4100 Ry                                         
                                                                                
   TITEL  = PAW_PBE Te 08Apr2002                                                
   LULTRA =        F    use ultrasoft PP ?                                      
   IUNSCR =        1    unscreen: 0-lin 1-nonlin 2-no                           
   RPACOR =    2.200    partial core radius                                     
   POMASS =  127.600; ZVAL   =    6.000    mass and valenz                      
   RCORE  =    2.300    outmost cutoff radius                                   
   RWIGS  =    2.900; RWIGS  =    1.535    wigner-seitz radius (au A)           
   ENMAX  =  174.982; ENMIN  =  131.236 eV                                      
   ICORE  =        3    local potential                                         
   LCOR   =        T    correct aug charges                                     
   LPAW   =        T    paw PP                                                  
   EAUG   =  368.792                                                            
   DEXC   =    0.000                                                            
   RMAX   =    2.345    core radius for proj-oper                               
   RAUG   =    1.300    factor for augmentation sphere                          
   RDEP   =    2.397    radius for radial grids                                 
   RDEPT  =    2.174    core radius for aug-charge                              
                                                                                
   Atomic configuration                                                         
   13 entries                                                                   
     n  l   j            E        occ.                                          
     1  0  0.50    -31621.2075   2.0000                                         
     2  0  0.50     -4848.7941   2.0000                                         
     2  1  1.50     -4352.1960   6.0000                                         
     3  0  0.50      -964.9612   2.0000                                         
     3  1  1.50      -803.6179   6.0000                                         
     3  2  2.50      -559.8710  10.0000                                         
     4  0  0.50      -164.3522   2.0000                                         
     4  1  1.50      -114.3756   6.0000                                         
     4  2  2.50       -41.6483  10.0000                                         
     5  0  0.50       -15.1072   2.0000                                         
     5  1  0.50        -5.9526   4.0000                                         
     5  2  1.50        -5.4423   0.0000                                         
     4  3  2.50        -5.4423   0.0000                                         
   Description                                                                  
     l       E           TYP  RCUT    TYP  RCUT                                 
     0    -15.1072389     23  2.300                                             
     0    -16.4678215     23  2.300                                             
     1     -5.9526306     23  2.300                                             
     1     -2.4873968     23  2.300                                             
     2     -5.4423304     23  2.300                                             
     3     -1.3605826     23  2.300                                             
  local pseudopotential read in
  partial core-charges read in
  partial kinetic energy density read in
  atomic valenz-charges read in
  non local Contribution for L=           0  read in
    real space projection operators read in
  non local Contribution for L=           0  read in
    real space projection operators read in
  non local Contribution for L=           1  read in
    real space projection operators read in
  non local Contribution for L=           1  read in
    real space projection operators read in
  non local Contribution for L=           2  read in
    real space projection operators read in
    PAW grid and wavefunctions read in

   number of l-projection  operators is LMAX  =           5
   number of lm-projection operators is LMMAX =          13


 ----------------------------------------------------------------------------- 
|                                                                             |
|  ADVICE TO THIS USER RUNNING 'VASP/VAMP'   (HEAR YOUR MASTER'S VOICE ...):  |
|                                                                             |
|      You have a (more or less) 'large supercell' and for larger cells       |
|      it might be more efficient to use real space projection opertators     |
|      So try LREAL= Auto  in the INCAR   file.                               |
|      Mind:          For very  accurate calculation you might also keep the  |
|      reciprocal projection scheme          (i.e. LREAL=.FALSE.)             |
|                                                                             |
 ----------------------------------------------------------------------------- 

  PAW_PBE Cd 06Sep2000                  :
 energy of atom  1       EATOM=-1293.1815
 kinetic energy error for atom=    0.0084 (will be added to EATOM!!)
  PAW_PBE Te 08Apr2002                  :
 energy of atom  2       EATOM= -223.2721
 kinetic energy error for atom=    0.0008 (will be added to EATOM!!)


 POSCAR: Cd33 Te32                               
  positions in direct lattice
  No initial velocities read in
 exchange correlation table for  LEXCH =        8
   RHO(1)=    0.500       N(1)  =     2000
   RHO(2)=  100.500       N(2)  =     4000



--------------------------------------------------------------------------------------------------------


 ion  position               nearest neighbor table
   1  0.004  0.996  0.004-  44 2.79  35 2.93  54 2.93  65 2.93  33 2.94
   2  0.001  0.999  0.497-  55 2.82  34 2.82  64 2.82  45 2.84
   3  0.001  0.503  0.001-  63 2.82  56 2.82  37 2.82  42 2.84
   4  1.000  0.501  0.499-  57 2.82  62 2.82  36 2.82  43 2.84
   5  0.497  0.999  0.001-  39 2.82  50 2.82  61 2.82  48 2.84
   6  0.499  0.000  0.499-  38 2.82  51 2.82  60 2.82  49 2.84
   7  0.499  0.501  1.000-  41 2.82  59 2.82  52 2.82  46 2.84
   8  0.501  0.499  0.501-  47 2.82  40 2.83  53 2.83  58 2.83
   9  0.001  0.251  0.253-  54 2.82  34 2.82  62 2.82  42 2.84
  10  0.004  0.254  0.746-  43 2.79  35 2.93  55 2.93  63 2.93  33 2.94
  11  1.000  0.749  0.251-  56 2.82  64 2.82  36 2.82  44 2.84
  12  0.001  0.747  0.749-  65 2.82  57 2.82  37 2.82  45 2.84
  13  0.499  0.250  0.251-  38 2.82  50 2.82  58 2.82  46 2.84
  14  0.497  0.251  0.749-  39 2.82  51 2.82  59 2.82  47 2.84
  15  0.501  0.751  0.249-  48 2.82  40 2.83  52 2.83  60 2.83
  16  0.499  0.749  0.750-  41 2.82  61 2.82  53 2.82  49 2.84
  17  0.251  0.000  0.251-  34 2.82  50 2.82  60 2.82  44 2.84
  18  0.253  0.999  0.749-  35 2.82  51 2.82  61 2.82  45 2.84
  19  0.249  0.499  0.249-  42 2.82  36 2.83  52 2.83  58 2.83
  20  0.251  0.501  0.750-  37 2.82  59 2.82  53 2.82  43 2.84
  21  0.749  0.999  0.253-  54 2.82  38 2.82  64 2.82  48 2.84
  22  0.746  0.996  0.746-  49 2.79  39 2.93  55 2.93  65 2.93  33 2.94
  23  0.750  0.501  0.251-  56 2.82  62 2.82  40 2.82  46 2.84
  24  0.749  0.503  0.749-  63 2.82  57 2.82  41 2.82  47 2.84
  25  0.253  0.251  0.001-  35 2.82  50 2.82  59 2.82  42 2.84
  26  0.251  0.250  0.499-  34 2.82  51 2.82  58 2.82  43 2.84
  27  0.251  0.749  1.000-  37 2.82  61 2.82  52 2.82  44 2.84
  28  0.249  0.751  0.501-  45 2.82  36 2.83  53 2.83  60 2.83
  29  0.746  0.254  0.004-  46 2.79  39 2.93  54 2.93  63 2.93  33 2.94
  30  0.749  0.251  0.497-  55 2.82  38 2.82  62 2.82  47 2.84
  31  0.749  0.747  0.001-  65 2.82  56 2.82  41 2.82  48 2.84
  32  0.750  0.749  0.499-  57 2.82  64 2.82  40 2.82  49 2.84
  33  0.875  0.125  0.875-   1 2.94  10 2.94  22 2.94  29 2.94  35 3.37  39 3.37  54 3.37  55 3.37
                            63 3.37  65 3.37
  34  0.127  0.125  0.375-  17 2.82  26 2.82   2 2.82   9 2.82
  35  0.133  0.125  0.875-  18 2.82  25 2.82  10 2.93   1 2.93  33 3.37
  36  0.126  0.625  0.375-   4 2.82  11 2.82  19 2.83  28 2.83
  37  0.127  0.625  0.875-  20 2.82  27 2.82   3 2.82  12 2.82
  38  0.623  0.125  0.375-  13 2.82   6 2.82  21 2.82  30 2.82
  39  0.617  0.125  0.875-  14 2.82   5 2.82  22 2.93  29 2.93  33 3.37
  40  0.624  0.625  0.375-  23 2.82  32 2.82   8 2.83  15 2.83
  41  0.623  0.625  0.875-   7 2.82  16 2.82  31 2.82  24 2.82
  42  0.125  0.375  0.125-  19 2.82   9 2.84  25 2.84   3 2.84
  43  0.127  0.377  0.623-  10 2.79   4 2.84  26 2.84  20 2.84
  44  0.127  0.873  0.127-   1 2.79  11 2.84  17 2.84  27 2.84
  45  0.125  0.875  0.625-  28 2.82  18 2.84   2 2.84  12 2.84
  46  0.623  0.377  0.127-  29 2.79  13 2.84  23 2.84   7 2.84
  47  0.625  0.375  0.625-   8 2.82  14 2.84  24 2.84  30 2.84
  48  0.625  0.875  0.125-  15 2.82  21 2.84   5 2.84  31 2.84
  49  0.623  0.873  0.623-  22 2.79  32 2.84   6 2.84  16 2.84
  50  0.375  0.125  0.127-  17 2.82  13 2.82   5 2.82  25 2.82
  51  0.375  0.125  0.623-   6 2.82  26 2.82  18 2.82  14 2.82
  52  0.375  0.625  0.126-   7 2.82  27 2.82  19 2.83  15 2.83
  53  0.375  0.625  0.624-  16 2.82  20 2.82   8 2.83  28 2.83
  54  0.875  0.125  0.133-   9 2.82  21 2.82   1 2.93  29 2.93  33 3.37
  55  0.875  0.125  0.617-  30 2.82   2 2.82  22 2.93  10 2.93  33 3.37
  56  0.875  0.625  0.127-  11 2.82  23 2.82   3 2.82  31 2.82
  57  0.875  0.625  0.623-   4 2.82  32 2.82  12 2.82  24 2.82
  58  0.375  0.376  0.375-  26 2.82  13 2.82  19 2.83   8 2.83
  59  0.375  0.377  0.875-   7 2.82  20 2.82  14 2.82  25 2.82
  60  0.375  0.874  0.375-   6 2.82  17 2.82  15 2.83  28 2.83
  61  0.375  0.873  0.875-  16 2.82  27 2.82   5 2.82  18 2.82
  62  0.875  0.377  0.375-   4 2.82  23 2.82   9 2.82  30 2.82
  63  0.875  0.383  0.875-  24 2.82   3 2.82  10 2.93  29 2.93  33 3.37
  64  0.875  0.873  0.375-  11 2.82  32 2.82   2 2.82  21 2.82
  65  0.875  0.867  0.875-  12 2.82  31 2.82   1 2.93  22 2.93  33 3.37


IMPORTANT INFORMATION: All symmetrisations will be switched off!
NOSYMM: (Re-)initialisation of all symmetry stuff for point group C_1.



 KPOINTS: Automatically generated mesh            
  k-points in reciprocal lattice
Space group operators:
 irot       det(A)        alpha          n_x          n_y          n_z        tau_x        tau_y        tau_z
    1     1.000000     0.000000     1.000000     0.000000     0.000000     0.000000     0.000000     0.000000

 ----------------------------------------------------------------------------- 
|                                                                             |
|           W    W    AA    RRRRR   N    N  II  N    N   GGGG   !!!           |
|           W    W   A  A   R    R  NN   N  II  NN   N  G    G  !!!           |
|           W    W  A    A  R    R  N N  N  II  N N  N  G       !!!           |
|           W WW W  AAAAAA  RRRRR   N  N N  II  N  N N  G  GGG   !            |
|           WW  WW  A    A  R   R   N   NN  II  N   NN  G    G                |
|           W    W  A    A  R    R  N    N  II  N    N   GGGG   !!!           |
|                                                                             |
|      Your generating k-point grid is not commensurate to the symmetry       |
|      of the lattice.  This can cause   slow convergence with respect        |
|      to k-points for HF type calculations                                   |
|      suggested SOLUTIONS:                                                   |
|       ) if not already the case, use automatic k-point generation           |
|       ) shift your grid to Gamma (G) (e.g. required for hex or fcc lattice) |
|                                                                             |
 ----------------------------------------------------------------------------- 

 
 Subroutine IBZKPT_HF returns following result:
 ==============================================
 
 Found      8 k-points in 1st BZ
 the following      8 k-points will be used (e.g. in the exchange kernel)
 Following reciprocal coordinates:   # in IRBZ
  0.000000  0.000000  0.000000    0.12500000   1 t-inv F
  0.500000  0.000000  0.000000    0.12500000   2 t-inv F
  0.000000  0.500000  0.000000    0.12500000   3 t-inv F
  0.500000  0.500000  0.000000    0.12500000   4 t-inv F
  0.000000  0.000000  0.500000    0.12500000   5 t-inv F
  0.500000  0.000000  0.500000    0.12500000   6 t-inv F
  0.000000  0.500000  0.500000    0.12500000   7 t-inv F
  0.500000  0.500000  0.500000    0.12500000   8 t-inv F


--------------------------------------------------------------------------------------------------------




 Dimension of arrays:
   k-points           NKPTS =      8   k-points in BZ     NKDIM =      8   number of bands    NBANDS=    832
   number of dos      NEDOS =   2000   number of ions     NIONS =     65
   non local maximal  LDIM  =      6   non local SUM 2l+1 LMDIM =     18
   total plane-waves  NPLWV = 884736
   max r-space proj   IRMAX =      1   max aug-charges    IRDMAX= 183854
   dimension x,y,z NGX =    96 NGY =   96 NGZ =   96
   dimension x,y,z NGXF=   192 NGYF=  192 NGZF=  192
   support grid    NGXF=   384 NGYF=  384 NGZF=  384
   ions per type =              33  32
   NGX,Y,Z   is equivalent  to a cutoff of  12.20, 12.20, 12.20 a.u.
   NGXF,Y,Z  is equivalent  to a cutoff of  24.39, 24.39, 24.39 a.u.

 SYSTEM =  unknown system                          
 POSCAR =  Cd33 Te32                               

 Startparameter for this run:
   NWRITE =      2    write-flag & timer
   PREC   = accura    normal or accurate (medium, high low for compatibility)
   ISTART =      0    job   : 0-new  1-cont  2-samecut
   ICHARG =      1    charge: 1-file 2-atom 10-const
   ISPIN  =      1    spin polarized calculation?
   LNONCOLLINEAR =      T non collinear calculations
   LSORBIT =      T    spin-orbit coupling
   INIWAV =      1    electr: 0-lowe 1-rand  2-diag
   LASPH  =      T    aspherical Exc in radial PAW
   METAGGA=      F    non-selfconsistent MetaGGA calc.

 Electronic Relaxation 1
   ENCUT  =  450.0 eV  33.07 Ry    5.75 a.u.  22.64 22.64 22.64*2*pi/ulx,y,z
   ENINI  =  450.0     initial cutoff
   ENAUG  =  456.1 eV  augmentation charge cutoff
   NELM   =      6;   NELMIN=  2; NELMDL= -5     # of ELM steps 
   EDIFF  = 0.1E-05   stopping-criterion for ELM
   LREAL  =      F    real-space projection
   NLSPLINE    = F    spline interpolate recip. space projectors
   LCOMPAT=      F    compatible to vasp.4.4
   GGA_COMPAT  = T    GGA compatible to vasp.4.4-vasp.4.6
   LMAXPAW     = -100 max onsite density
   LMAXMIX     =    2 max onsite mixed and CHGCAR
   VOSKOWN=      0    Vosko Wilk Nusair interpolation
   ROPT   =    0.00000   0.00000
 Ionic relaxation
   EDIFFG = -.1E-01   stopping-criterion for IOM
   NSW    =      0    number of steps for IOM
   NBLOCK =      1;   KBLOCK =      1    inner block; outer block 
   IBRION =     -1    ionic relax: 0-MD 1-quasi-New 2-CG
   NFREE  =      0    steps in history (QN), initial steepest desc. (CG)
   ISIF   =      2    stress and relaxation
   IWAVPR =     10    prediction:  0-non 1-charg 2-wave 3-comb
   ISYM   =      0    0-nonsym 1-usesym 2-fastsym
   LCORR  =      T    Harris-Foulkes like correction to forces

   POTIM  = 0.5000    time-step for ionic-motion
   TEIN   =    0.0    initial temperature
   TEBEG  =    0.0;   TEEND  =   0.0 temperature during run
   SMASS  =  -3.00    Nose mass-parameter (am)
   estimated Nose-frequenzy (Omega)   =  0.10E-29 period in steps =****** mass=  -0.391E-26a.u.
   SCALEE = 1.0000    scale energy and forces
   NPACO  =    256;   APACO  = 16.0  distance and # of slots for P.C.
   PSTRESS=    0.0 pullay stress

  Mass of Ions in am
   POMASS = 112.41127.60
  Ionic Valenz
   ZVAL   =  12.00  6.00
  Atomic Wigner-Seitz radii
   RWIGS  =  -1.00 -1.00
  virtual crystal weights 
   VCA    =   1.00  1.00
   NELECT =     588.0000    total number of electrons
   NUPDOWN=      -1.0000    fix difference up-down

 DOS related values:
   EMIN   =  10.00;   EMAX   =-10.00  energy-range for DOS
   EFERMI =   0.00
   ISMEAR =     0;   SIGMA  =   0.05  broadening in eV -4-tet -1-fermi 0-gaus

 Electronic relaxation 2 (details)
   IALGO  =     58    algorithm
   LDIAG  =      T    sub-space diagonalisation (order eigenvalues)
   LSUBROT=      F    optimize rotation matrix (better conditioning)
   TURBO    =      0    0=normal 1=particle mesh
   IRESTART =      0    0=no restart 2=restart with 2 vectors
   NREBOOT  =      0    no. of reboots
   NMIN     =      0    reboot dimension
   EREF     =   0.00    reference energy to select bands
   IMIX   =      4    mixing-type and parameters
     AMIX     =   0.40;   BMIX     =  1.00
     AMIX_MAG =   1.60;   BMIX_MAG =  1.00
     AMIN     =   0.10
     WC   =   100.;   INIMIX=   1;  MIXPRE=   1;  MAXMIX= -45

 Intra band minimization:
   WEIMIN = 0.0000     energy-eigenvalue tresh-hold
   EBREAK =  0.30E-09  absolut break condition
   DEPER  =   0.30     relativ break condition  

   TIME   =   0.40     timestep for ELM

  volume/ion in A,a.u.               =      34.48       232.69
  Fermi-wavevector in a.u.,A,eV,Ry     =   1.048017  1.980464 14.943809  1.098339
  Thomas-Fermi vector in A             =   2.182921

 Write flags
   LWAVE        =      T    write WAVECAR
   LDOWNSAMPLE  =      F    k-point downsampling of WAVECAR
   LCHARG       =      T    write CHGCAR
   LVTOT        =      F    write LOCPOT, total local potential
   LVHAR        =      T    write LOCPOT, Hartree potential only
   LELF         =      F    write electronic localiz. function (ELF)
   LORBIT       =     11    0 simple, 1 ext, 2 COOP (PROOUT), +10 PAW based schemes


 Dipole corrections
   LMONO  =      F    monopole corrections only (constant potential shift)
   LDIPOL =      F    correct potential (dipole corrections)
   IDIPOL =      0    1-x, 2-y, 3-z, 4-all directions 
   EPSILON=  1.0000000 bulk dielectric constant

 Exchange correlation treatment:
   GGA     =    --    GGA type
   LEXCH   =     8    internal setting for exchange type
   VOSKOWN=      0    Vosko Wilk Nusair interpolation
   EXXOEP  =     0    0=HF, 1=EXX-LHF (local Hartree Fock) 2=EXX OEP
   LHFCALC =     T    Hartree Fock is set to
   LSYMGRAD=     F    symmetrize gradient (conserves proper symmetry)
   PRECFOCK=fast      Normal, Fast or Accurate (Low or Medium for compatibility)
   LRHFCALC=     F    long range Hartree Fock
   LRSCOR  =     F    long range correlation only (use DFT for short range part)
   LTHOMAS =     F    Thomas Fermi screening in HF
   LMODELHF=     F    short range full HF, long range fraction AEXX
   ENCUT4O =  -1.0   cutoff for four orbital integrals eV
   LMAXFOCK=     4    L truncation for augmentation on plane wave grid
   LMAXFOCKAE=  -1    L truncation for all-electron charge restoration on plane wave grid
   NMAXFOCKAE=   1    number of basis functions for all-electron charge restoration
   LFOCKAEDFT=     F  apply the AE augmentation even for DFT
   NKREDX  =     1    reduce k-point grid by
   NKREDY  =     1    reduce k-point grid by
   NKREDZ  =     1    reduce k-point grid by
   SHIFTRED=     F    shift reduced grid of Gamma
   HFKIDENT=     F    idential grid for each k-point
   ODDONLY =     F    use only odd q-grid points
   EVENONLY=     F    use only even q-grid points
   HFALPHA =   -1.0000 decay constant for conv. correction
   MCALPHA =    0.0000 extent of test-charge in conv. correction in multipole expansion
   AEXX    =    0.2500 exact exchange contribution
   HFSCREEN=    0.2000 screening length (either q_TF or 0.3 A-1)
   HFSCREENC=   0.2000 screening length for correlation (either q_TF or 0.3 A-1)
   HFRCUT  =    0.0000 spherical cutoff for potential kernel
   ALDAX   =    0.7500 LDA exchange part
   AGGAX   =    0.7500 GGA exchange part
   ALDAC   =    1.0000 LDA correlation
   AGGAC   =    1.0000 GGA correlation
   ENCUTFOCK=  -1.0 apply spherical cutoff to Coloumb kernel
   NBANDSGWLOW=     1    first orbital included in HF term
   NBLOCK_FOCK=    64    blocking factor in FOCK_ACC
 Linear response parameters
   LEPSILON=     F    determine dielectric tensor
   LRPA    =     F    only Hartree local field effects (RPA)
   LNABLA  =     F    use nabla operator in PAW spheres
   LVEL    =     F    velocity operator in full k-point grid
   LINTERFAST=   F  fast interpolation
   KINTER  =     0    interpolate to denser k-point grid
   CSHIFT  =0.1000    complex shift for real part using Kramers Kronig
   OMEGAMAX=  -1.0    maximum frequency
   DEG_THRESHOLD= 0.2000000E-02 threshold for treating states as degnerate
   RTIME   =   -0.100 relaxation time in fs
  (WPLASMAI=    0.000 imaginary part of plasma frequency in eV, 0.658/RTIME)
   DFIELD  = 0.0000000 0.0000000 0.0000000 field for delta impulse in time

 Orbital magnetization related:
   ORBITALMAG=     F  switch on orbital magnetization
   LCHIMAG   =     F  perturbation theory with respect to B field
   DQ        =  0.001000  dq finite difference perturbation B field
   LLRAUG    =     F  two centre corrections for induced B field



--------------------------------------------------------------------------------------------------------


 Static calculation
 charge density and potential will be updated during run
 non collinear spin polarized calculation
 Conjugate gradient for all bands (Freysoldt, et al. PRB 79, 241103 (2009))
 preconditioned conjugated gradient                                        
 perform sub-space diagonalisation
    before iterative eigenvector-optimisation
 modified Broyden-mixing scheme, WC =      100.0
 initial mixing is a Kerker type mixing with AMIX =  0.4000 and BMIX =      1.0000
 Hartree-type preconditioning will be used
 using additional bands          538
 reciprocal scheme for non local part
 use partial core corrections
 no Harris-corrections to forces 
 use gradient corrections 
 use of overlap-Matrix (Vanderbilt PP)
 Gauss-broadening in eV      SIGMA  =   0.05


--------------------------------------------------------------------------------------------------------


  energy-cutoff  :      450.00
  volume of cell :     2241.29
      direct lattice vectors                 reciprocal lattice vectors
    13.086768000  0.000000000  0.000000000     0.076413061  0.000000000  0.000000000
     0.000000000 13.086768000  0.000000000     0.000000000  0.076413061  0.000000000
     0.000000000  0.000000000 13.086768000     0.000000000  0.000000000  0.076413061

  length of vectors
    13.086768000 13.086768000 13.086768000     0.076413061  0.076413061  0.076413061



 k-points in units of 2pi/SCALE and weight: Automatically generated mesh            
   0.00000000  0.00000000  0.00000000       0.125
   0.03820653  0.00000000  0.00000000       0.125
   0.00000000  0.03820653  0.00000000       0.125
   0.03820653  0.03820653  0.00000000       0.125
   0.00000000  0.00000000  0.03820653       0.125
   0.03820653  0.00000000  0.03820653       0.125
   0.00000000  0.03820653  0.03820653       0.125
   0.03820653  0.03820653  0.03820653       0.125

 k-points in reciprocal lattice and weights: Automatically generated mesh            
   0.00000000  0.00000000  0.00000000       0.125
   0.50000000  0.00000000  0.00000000       0.125
   0.00000000  0.50000000  0.00000000       0.125
   0.50000000  0.50000000  0.00000000       0.125
   0.00000000  0.00000000  0.50000000       0.125
   0.50000000  0.00000000  0.50000000       0.125
   0.00000000  0.50000000  0.50000000       0.125
   0.50000000  0.50000000  0.50000000       0.125

 position of ions in fractional coordinates (direct lattice) 
   0.00448500  0.99551500  0.00448500
   0.00124700  0.99875300  0.49695900
   0.00124700  0.50304100  0.00124700
   0.99962500  0.50121800  0.49878200
   0.49695900  0.99875300  0.00124700
   0.49878100  0.00037500  0.49878100
   0.49878100  0.50121900  0.99962500
   0.50052800  0.49947200  0.50052800
   0.00124700  0.25124700  0.25304000
   0.00448600  0.25448500  0.74551500
   0.99962500  0.74878200  0.25121800
   0.00124700  0.74695900  0.74875300
   0.49878200  0.24962500  0.25121900
   0.49696000  0.25124700  0.74875300
   0.50052800  0.75052800  0.24947200
   0.49878100  0.74878100  0.75037500
   0.25121900  0.00037500  0.25121900
   0.25304000  0.99875300  0.74875300
   0.24947200  0.49947200  0.24947200
   0.25121900  0.50121900  0.75037500
   0.74875300  0.99875300  0.25304000
   0.74551400  0.99551500  0.74551500
   0.75037500  0.50121900  0.25121900
   0.74875300  0.50304000  0.74875300
   0.25304000  0.25124700  0.00124700
   0.25121900  0.24962500  0.49878100
   0.25121900  0.74878100  0.99962500
   0.24947200  0.75052800  0.50052800
   0.74551400  0.25448500  0.00448500
   0.74875300  0.25124700  0.49696000
   0.74875300  0.74695900  0.00124700
   0.75037500  0.74878200  0.49878200
   0.87500000  0.12500000  0.87500000
   0.12665600  0.12500000  0.37500000
   0.13277900  0.12500000  0.87500000
   0.12589200  0.62500000  0.37500000
   0.12665600  0.62500000  0.87500000
   0.62334400  0.12500000  0.37500000
   0.61722100  0.12500000  0.87500000
   0.62410800  0.62500000  0.37500000
   0.62334400  0.62500000  0.87500000
   0.12484800  0.37484800  0.12484800
   0.12748800  0.37748800  0.62251200
   0.12748800  0.87251200  0.12748800
   0.12484800  0.87515200  0.62515200
   0.62251200  0.37748800  0.12748800
   0.62515200  0.37484800  0.62515200
   0.62515200  0.87515200  0.12484800
   0.62251200  0.87251200  0.62251200
   0.37500000  0.12500000  0.12665600
   0.37500000  0.12500000  0.62334400
   0.37500000  0.62500000  0.12589200
   0.37500000  0.62500000  0.62410800
   0.87500000  0.12500000  0.13277900
   0.87500000  0.12500000  0.61722100
   0.87500000  0.62500000  0.12665600
   0.87500000  0.62500000  0.62334400
   0.37500000  0.37589200  0.37500000
   0.37500000  0.37665600  0.87500000
   0.37500000  0.87410800  0.37500000
   0.37500000  0.87334400  0.87500000
   0.87500000  0.37665600  0.37500000
   0.87500000  0.38277900  0.87500000
   0.87500000  0.87334400  0.37500000
   0.87500000  0.86722100  0.87500000

 position of ions in cartesian coordinates  (Angst):
   0.05869415 13.02807385  0.05869415
   0.01631920 13.07044880  6.50358714
   0.01631920  6.58318086  0.01631920
  13.08186046  6.55932368  6.52744432
   6.50358714 13.07044880  0.01631920
   6.52743123  0.00490754  6.52743123
   6.52743123  6.55933677 13.08186046
   6.55029381  6.53647419  6.55029381
   0.01631920  3.28801120  3.31147577
   0.05870724  3.33038615  9.75638185
  13.08186046  9.79913632  3.28763168
   0.01631920  9.77527914  9.79875680
   6.52744432  3.26678446  3.28764477
   6.50360023  3.28801120  9.79875680
   6.55029381  9.82198581  3.26478219
   6.52743123  9.79912323  9.81998354
   3.28764477  0.00490754  3.28764477
   3.31147577 13.07044880  9.79875680
   3.26478219  6.53647419  3.26478219
   3.28764477  6.55933677  9.81998354
   9.79875680 13.07044880  3.31147577
   9.75636876 13.02807385  9.75638185
   9.81998354  6.55933677  3.28764477
   9.79875680  6.58316777  9.79875680
   3.31147577  3.28801120  0.01631920
   3.28764477  3.26678446  6.52743123
   3.28764477  9.79912323 13.08186046
   3.26478219  9.82198581  6.55029381
   9.75636876  3.33038615  0.05869415
   9.79875680  3.28801120  6.50360023
   9.79875680  9.77527914  0.01631920
   9.81998354  9.79913632  6.52744432
  11.45092200  1.63584600 11.45092200
   1.65751769  1.63584600  4.90753800
   1.73764797  1.63584600 11.45092200
   1.64751940  8.17923000  4.90753800
   1.65751769  8.17923000 11.45092200
   8.15755831  1.63584600  4.90753800
   8.07742803  1.63584600 11.45092200
   8.16755660  8.17923000  4.90753800
   8.15755831  8.17923000 11.45092200
   1.63385681  4.90554881  1.63385681
   1.66840588  4.94009788  8.14667012
   1.66840588 11.41836212  1.66840588
   1.63385681 11.45291119  8.18121919
   8.14667012  4.94009788  1.66840588
   8.18121919  4.90554881  8.18121919
   8.18121919 11.45291119  1.63385681
   8.14667012 11.41836212  8.14667012
   4.90753800  1.63584600  1.65751769
   4.90753800  1.63584600  8.15755831
   4.90753800  8.17923000  1.64751940
   4.90753800  8.17923000  8.16755660
  11.45092200  1.63584600  1.73764797
  11.45092200  1.63584600  8.07742803
  11.45092200  8.17923000  1.65751769
  11.45092200  8.17923000  8.15755831
   4.90753800  4.91921140  4.90753800
   4.90753800  4.92920969 11.45092200
   4.90753800 11.43924860  4.90753800
   4.90753800 11.42925031 11.45092200
  11.45092200  4.92920969  4.90753800
  11.45092200  5.00933997 11.45092200
  11.45092200 11.42925031  4.90753800
  11.45092200 11.34912003 11.45092200

 Euler angles ALPHA=     0.0000000  BETA=     0.0000000

 transformation matrix from SAXIS to cartesian coordinates
 ---------------------------------------------------------
     1.0000000 m_x    -0.0000000 m_y     0.0000000 m_z
     0.0000000 m_x     1.0000000 m_y     0.0000000 m_z
    -0.0000000 m_x     0.0000000 m_y     1.0000000 m_z

 transformation matrix from cartesian coordinates to SAXIS
 ---------------------------------------------------------
     1.0000000 m_x     0.0000000 m_y    -0.0000000 m_z
    -0.0000000 m_x     1.0000000 m_y     0.0000000 m_z
     0.0000000 m_x     0.0000000 m_y     1.0000000 m_z




--------------------------------------------------------------------------------------------------------


 k-point  1 :   0.0000 0.0000 0.0000  plane waves:   97002
 k-point  2 :   0.5000 0.0000 0.0000  plane waves:   97356
 k-point  3 :   0.0000 0.5000 0.0000  plane waves:   97356
 k-point  4 :   0.5000 0.5000 0.0000  plane waves:   96960
 k-point  5 :   0.0000 0.0000 0.5000  plane waves:   97356
 k-point  6 :   0.5000 0.0000 0.5000  plane waves:   96960
 k-point  7 :   0.0000 0.5000 0.5000  plane waves:   96960
 k-point  8 :   0.5000 0.5000 0.5000  plane waves:   96832

 maximum and minimum number of plane-waves per node :      3116     2976

 maximum number of plane-waves:     97356
 maximum index in each direction: 
   IXMAX=   22   IYMAX=   22   IZMAX=   22
   IXMIN=  -23   IYMIN=  -23   IZMIN=  -23


 parallel 3D FFT for wavefunctions:
    minimum data exchange during FFTs selected (reduces bandwidth)
 parallel 3D FFT for charge:
    minimum data exchange during FFTs selected (reduces bandwidth)


 FFT grid for exact exchange (Hartree Fock) 
  NGX = 48; NGY = 48; NGZ = 48


 Radii for the augmentation spheres in the non-local exchange
 for species   1 augmentation radius   1.444 (default was   1.070)
       energy cutoff for augmentation   1800.0
 for species   2 augmentation radius   1.606 (default was   1.190)
       energy cutoff for augmentation   1800.0

 real space projection operators:
  total allocation   :       9375.20 KBytes
  max/ min on nodes  :        432.62        141.21

 Maximum index for augmentation-charges in exchange           97
  SETUP_FOCK is finished

 total amount of memory used by VASP MPI-rank0    71825. kBytes
=======================================================================

   base      :      30000. kBytes
   nonl-proj :       5136. kBytes
   fftplans  :       6592. kBytes
   grid      :      12386. kBytes
   one-center:        186. kBytes
   HF        :        129. kBytes
   nonlr-proj:       1424. kBytes
   wavefun   :      15972. kBytes

     INWAV:  cpu time    0.0001: real time    0.0005
 Broyden mixing: mesh for mixing (old mesh)
   NGX = 45   NGY = 45   NGZ = 45
  (NGX  =192   NGY  =192   NGZ  =192)
  gives a total of  91125 points

 initial charge density was supplied:
 charge density of overlapping atoms calculated
 number of electron     588.0000000 magnetization      65.0000000     65.0000000     65.0000000
 keeping initial charge density in first step


--------------------------------------------------------------------------------------------------------


 Maximum index for augmentation-charges         3093 (set IRDMAX)


--------------------------------------------------------------------------------------------------------


 First call to EWALD:  gamma=   0.135
 Maximum number of real-space cells 3x 3x 3
 Maximum number of reciprocal cells 3x 3x 3

    FEWALD:  cpu time    0.0244: real time    0.0244


--------------------------------------- Iteration      1(   1)  ---------------------------------------


    POTLOK:  cpu time    2.4192: real time    2.4212
    SETDIJ:  cpu time    1.9385: real time    1.9393
    TRIAL :  cpu time   87.9752: real time   88.0006
    CORREC:  cpu time    0.0022: real time    0.0022
    --------------------------------------------
      LOOP:  cpu time   92.4302: real time   92.4583

 eigenvalue-minimisations  : 13312
 total energy-change (2. order) : 0.4515706E+04  (-0.2571820E+05)
 number of electron     588.0000000 magnetization      65.0000000     65.0000000     65.0000000
 augmentation part      588.0000000 magnetization      65.0000000     65.0000000     65.0000000

 Free energy of the ion-electron system (eV)
  ---------------------------------------------------
  alpha Z        PSCENC =      1642.45118531
  Ewald energy   TEWEN  =    -33940.17512420
  -Hartree energ DENC   =    -17077.89199325
  -exchange      EXHF   =         0.00000000
  -V(xc)+E(xc)   XCENC  =      -617.56595420
  PAW double counting   =     46020.13618676   -43994.38451620
  entropy T*S    EENTRO =        -0.03377039
  eigenvalues    EBANDS =      2733.74447254
  atomic energy  EATOM  =     49749.42546356
  ---------------------------------------------------
  free energy    TOTEN  =      4515.70594994 eV

  energy without entropy =     4515.73972033  energy(sigma->0) =     4515.72283513
  exchange ACFDT corr.  =         0.00000000  see jH, gK, PRB 81, 115126


--------------------------------------------------------------------------------------------------------




--------------------------------------- Iteration      1(   2)  ---------------------------------------


    TRIAL :  cpu time    7.2889: real time    7.2915
    CORREC:  cpu time    0.0020: real time    0.0020
    --------------------------------------------
      LOOP:  cpu time    7.3068: real time    7.3379

 eigenvalue-minimisations  : 14336
 total energy-change (2. order) :-0.3364875E+04  (-0.3214034E+04)
 number of electron     588.0000000 magnetization      65.0000000     65.0000000     65.0000000
 augmentation part      588.0000000 magnetization      65.0000000     65.0000000     65.0000000

 Free energy of the ion-electron system (eV)
  ---------------------------------------------------
  alpha Z        PSCENC =      1642.45118531
  Ewald energy   TEWEN  =    -33940.17512420
  -Hartree energ DENC   =    -17077.89199325
  -exchange      EXHF   =         0.00000000
  -V(xc)+E(xc)   XCENC  =      -617.56595420
  PAW double counting   =     46020.13618676   -43994.38451620
  entropy T*S    EENTRO =        -0.01015488
  eigenvalues    EBANDS =      -631.15383150
  atomic energy  EATOM  =     49749.42546356
  ---------------------------------------------------
  free energy    TOTEN  =      1150.83126140 eV

  energy without entropy =     1150.84141628  energy(sigma->0) =     1150.83633884
  exchange ACFDT corr.  =         0.00000000  see jH, gK, PRB 81, 115126


--------------------------------------------------------------------------------------------------------




--------------------------------------- Iteration      1(   3)  ---------------------------------------


    TRIAL :  cpu time    8.1359: real time    8.1389
    CORREC:  cpu time    0.0019: real time    0.0019
    --------------------------------------------
      LOOP:  cpu time    8.1487: real time    8.1856

 eigenvalue-minimisations  : 15360
 total energy-change (2. order) :-0.2048540E+03  (-0.2026542E+03)
 number of electron     588.0000000 magnetization      65.0000000     65.0000000     65.0000000
 augmentation part      588.0000000 magnetization      65.0000000     65.0000000     65.0000000

 Free energy of the ion-electron system (eV)
  ---------------------------------------------------
  alpha Z        PSCENC =      1642.45118531
  Ewald energy   TEWEN  =    -33940.17512420
  -Hartree energ DENC   =    -17077.89199325
  -exchange      EXHF   =         0.00000000
  -V(xc)+E(xc)   XCENC  =      -617.56595420
  PAW double counting   =     46020.13618676   -43994.38451620
  entropy T*S    EENTRO =        -0.01245141
  eigenvalues    EBANDS =      -836.00557079
  atomic energy  EATOM  =     49749.42546356
  ---------------------------------------------------
  free energy    TOTEN  =       945.97722559 eV

  energy without entropy =      945.98967699  energy(sigma->0) =      945.98345129
  exchange ACFDT corr.  =         0.00000000  see jH, gK, PRB 81, 115126


--------------------------------------------------------------------------------------------------------




--------------------------------------- Iteration      1(   4)  ---------------------------------------


    TRIAL :  cpu time    8.1825: real time    8.1858
    CORREC:  cpu time    0.0018: real time    0.0018
    --------------------------------------------
      LOOP:  cpu time    8.1953: real time    8.2346

 eigenvalue-minimisations  : 15424
 total energy-change (2. order) :-0.4309863E+01  (-0.4303647E+01)
 number of electron     588.0000000 magnetization      65.0000000     65.0000000     65.0000000
 augmentation part      588.0000000 magnetization      65.0000000     65.0000000     65.0000000

 Free energy of the ion-electron system (eV)
  ---------------------------------------------------
  alpha Z        PSCENC =      1642.45118531
  Ewald energy   TEWEN  =    -33940.17512420
  -Hartree energ DENC   =    -17077.89199325
  -exchange      EXHF   =         0.00000000
  -V(xc)+E(xc)   XCENC  =      -617.56595420
  PAW double counting   =     46020.13618676   -43994.38451620
  entropy T*S    EENTRO =        -0.01277932
  eigenvalues    EBANDS =      -840.31510619
  atomic energy  EATOM  =     49749.42546356
  ---------------------------------------------------
  free energy    TOTEN  =       941.66736228 eV

  energy without entropy =      941.68014159  energy(sigma->0) =      941.67375194
  exchange ACFDT corr.  =         0.00000000  see jH, gK, PRB 81, 115126


--------------------------------------------------------------------------------------------------------




--------------------------------------- Iteration      1(   5)  ---------------------------------------


    TRIAL :  cpu time    8.1430: real time    8.1467
    CORREC:  cpu time    0.0018: real time    0.0018
    CHARGE:  cpu time    0.6351: real time    0.6351
    --------------------------------------------
      LOOP:  cpu time    8.7921: real time    8.8285

 eigenvalue-minimisations  : 15232
 total energy-change (2. order) :-0.7685778E-01  (-0.7669838E-01)
 number of electron     588.0000006 magnetization       0.6809913      0.6809841      0.6809911
 augmentation part      145.5208399 magnetization       0.5827001      0.5827277      0.5826848

 Free energy of the ion-electron system (eV)
  ---------------------------------------------------
  alpha Z        PSCENC =      1642.45118531
  Ewald energy   TEWEN  =    -33940.17512420
  -Hartree energ DENC   =    -17077.89199325
  -exchange      EXHF   =         0.00000000
  -V(xc)+E(xc)   XCENC  =      -617.56595420
  PAW double counting   =     46020.13618676   -43994.38451620
  entropy T*S    EENTRO =        -0.01278129
  eigenvalues    EBANDS =      -840.39196200
  atomic energy  EATOM  =     49749.42546356
  ---------------------------------------------------
  free energy    TOTEN  =       941.59050450 eV

  energy without entropy =      941.60328579  energy(sigma->0) =      941.59689515
  exchange ACFDT corr.  =         0.00000000  see jH, gK, PRB 81, 115126


--------------------------------------------------------------------------------------------------------




--------------------------------------- Iteration      1(   6)  ---------------------------------------


    POTLOK:  cpu time    2.2466: real time    2.2475
    SETDIJ:  cpu time    2.1077: real time    2.1085
    TRIAL :  cpu time  263.1481: real time  263.2538
    CORREC:  cpu time  257.6949: real time  257.8056
    EDDIAG:  cpu time  256.0287: real time  256.1416
    CHARGE:  cpu time    0.6384: real time    0.6384
    --------------------------------------------
      LOOP:  cpu time  781.8790: real time  782.2410

 eigenvalue-minimisations  :     0
 total energy-change (2. order) :-0.3961069E+04  ( 0.6238688-240)
 number of electron     588.0000006 magnetization       1.4759428      1.4360690      4.1978428
 augmentation part      154.4136417 magnetization       0.6222923      0.5801939      0.9442004

 Free energy of the ion-electron system (eV)
  ---------------------------------------------------
  alpha Z        PSCENC =      1642.45118531
  Ewald energy   TEWEN  =    -33940.17512420
  -Hartree energ DENC   =    -15675.17573907
  -exchange      EXHF   =      1095.74038821
  -V(xc)+E(xc)   XCENC  =      -655.55092720
  PAW double counting   =    120034.81806619  -117946.43878442
  entropy T*S    EENTRO =        -0.02762281
  eigenvalues    EBANDS =    -10204.80374094
  atomic energy  EATOM  =     49749.42546356
  ---------------------------------------------------
  free energy    TOTEN  =     -3019.47853937 eV

  energy without entropy =    -3019.45091656  energy(sigma->0) =    -3019.46472796
  exchange ACFDT corr.  =        -0.01688941  see jH, gK, PRB 81, 115126


--------------------------------------------------------------------------------------------------------


  average scaling for gradient   0.9436


 average (electrostatic) potential at core
  the test charge radii are     1.0698  1.1897
  (the norm of the test charge is              1.0000)
       1 -36.3663       2 -35.4576       3 -35.2398       4 -37.2281       5 -30.8265
       6 -31.6315       7 -31.7088       8 -32.0172       9 -37.2225      10 -34.0927
      11 -37.3657      12 -36.8021      13 -31.6995      14 -30.7095      15 -32.1033
      16 -31.6630      17 -32.5635      18 -31.4491      19 -33.4474      20 -32.8143
      21 -31.4009      22 -29.1175      23 -32.5253      24 -31.5410      25 -31.9342
      26 -32.6000      27 -32.9019      28 -33.1476      29 -29.3708      30 -31.4505
      31 -31.5383      32 -32.3497      33 -26.0049      34 -90.2617      35 -87.7796
      36 -91.5404      37 -90.9413      38 -88.0127      39 -85.5571      40 -88.6183
      41 -88.0534      42 -91.1307      43 -90.6300      44 -90.7641      45 -89.9660
      46 -88.0463      47 -87.8667      48 -87.9018      49 -87.7262      50 -88.4944
      51 -88.0331      52 -88.7794      53 -88.7745      54 -87.9276      55 -87.7237
      56 -90.7982      57 -90.5858      58 -88.9019      59 -88.1559      60 -88.5884
      61 -88.3304      62 -90.7413      63 -88.1731      64 -90.3987      65 -87.7838



 E-fermi :   5.4760     XC(G=0):  -7.3038     alpha+bet : -7.2837


 k-point     1 :       0.0000    0.0000    0.0000
  band No.  band energies     occupation 
      1     -11.8604      1.00000
      2     -11.7825      1.00000
      3     -11.6764      1.00000
      4     -11.5995      1.00000
      5     -11.5651      1.00000
      6     -11.5446      1.00000
      7     -11.4811      1.00000
      8     -11.4281      1.00000
      9     -11.3116      1.00000
     10     -11.2429      1.00000
     11     -11.2100      1.00000
     12     -11.1765      1.00000
     13     -11.1502      1.00000
     14     -11.1053      1.00000
     15     -11.0710      1.00000
     16     -11.0062      1.00000
     17     -10.9612      1.00000
     18     -10.9022      1.00000
     19     -10.8933      1.00000
     20     -10.8537      1.00000
     21     -10.7905      1.00000
     22     -10.6871      1.00000
     23     -10.6458      1.00000
     24     -10.5775      1.00000
     25     -10.5156      1.00000
     26     -10.4936      1.00000
     27     -10.4396      1.00000
     28     -10.3137      1.00000
     29     -10.2793      1.00000
     30     -10.2628      1.00000
     31     -10.1706      1.00000
     32     -10.0684      1.00000
     33     -10.0451      1.00000
     34     -10.0167      1.00000
     35      -9.9868      1.00000
     36      -9.9824      1.00000
     37      -9.9502      1.00000
     38      -9.8726      1.00000
     39      -9.8543      1.00000
     40      -9.8354      1.00000
     41      -9.8149      1.00000
     42      -9.8048      1.00000
     43      -9.7810      1.00000
     44      -9.7623      1.00000
     45      -9.7261      1.00000
     46      -9.7079      1.00000
     47      -9.6684      1.00000
     48      -9.6109      1.00000
     49      -9.5926      1.00000
     50      -9.5509      1.00000
     51      -9.5252      1.00000
     52      -9.4622      1.00000
     53      -9.4223      1.00000
     54      -9.3946      1.00000
     55      -9.3829      1.00000
     56      -9.3731      1.00000
     57      -9.3549      1.00000
     58      -9.3324      1.00000
     59      -9.2904      1.00000
     60      -9.2712      1.00000
     61      -9.2358      1.00000
     62      -9.1672      1.00000
     63      -9.1532      1.00000
     64      -9.0747      1.00000
     65      -8.9855      1.00000
     66      -8.9549      1.00000
     67      -8.9426      1.00000
     68      -8.9202      1.00000
     69      -8.9064      1.00000
     70      -8.8337      1.00000
     71      -8.7862      1.00000
     72      -8.7194      1.00000
     73      -8.6662      1.00000
     74      -8.6524      1.00000
     75      -8.6283      1.00000
     76      -8.6103      1.00000
     77      -8.5745      1.00000
     78      -8.5302      1.00000
     79      -8.4996      1.00000
     80      -8.4769      1.00000
     81      -8.4718      1.00000
     82      -8.4407      1.00000
     83      -8.4224      1.00000
     84      -8.4160      1.00000
     85      -8.3855      1.00000
     86      -8.3559      1.00000
     87      -8.3387      1.00000
     88      -8.3269      1.00000
     89      -8.2986      1.00000
     90      -8.2894      1.00000
     91      -8.2782      1.00000
     92      -8.2646      1.00000
     93      -8.2585      1.00000
     94      -8.2508      1.00000
     95      -8.2390      1.00000
     96      -8.2122      1.00000
     97      -8.1986      1.00000
     98      -8.1903      1.00000
     99      -8.1694      1.00000
    100      -8.1553      1.00000
    101      -8.1369      1.00000
    102      -8.1056      1.00000
    103      -8.1013      1.00000
    104      -8.0908      1.00000
    105      -8.0770      1.00000
    106      -8.0742      1.00000
    107      -8.0659      1.00000
    108      -8.0461      1.00000
    109      -8.0317      1.00000
    110      -8.0147      1.00000
    111      -8.0013      1.00000
    112      -7.9839      1.00000
    113      -7.9713      1.00000
    114      -7.9550      1.00000
    115      -7.9431      1.00000
    116      -7.9319      1.00000
    117      -7.9175      1.00000
    118      -7.9063      1.00000
    119      -7.8878      1.00000
    120      -7.8760      1.00000
    121      -7.8588      1.00000
    122      -7.8386      1.00000
    123      -7.8192      1.00000
    124      -7.8086      1.00000
    125      -7.7924      1.00000
    126      -7.7765      1.00000
    127      -7.7596      1.00000
    128      -7.7473      1.00000
    129      -7.7290      1.00000
    130      -7.7228      1.00000
    131      -7.7052      1.00000
    132      -7.6953      1.00000
    133      -7.6874      1.00000
    134      -7.6746      1.00000
    135      -7.6688      1.00000
    136      -7.6596      1.00000
    137      -7.6463      1.00000
    138      -7.6405      1.00000
    139      -7.6343      1.00000
    140      -7.6115      1.00000
    141      -7.5988      1.00000
    142      -7.5873      1.00000
    143      -7.5794      1.00000
    144      -7.5640      1.00000
    145      -7.5496      1.00000
    146      -7.5381      1.00000
    147      -7.5210      1.00000
    148      -7.5057      1.00000
    149      -7.4932      1.00000
    150      -7.4786      1.00000
    151      -7.4607      1.00000
    152      -7.4469      1.00000
    153      -7.4395      1.00000
    154      -7.4345      1.00000
    155      -7.4269      1.00000
    156      -7.4212      1.00000
    157      -7.4142      1.00000
    158      -7.4115      1.00000
    159      -7.4052      1.00000
    160      -7.3992      1.00000
    161      -7.3923      1.00000
    162      -7.3892      1.00000
    163      -7.3819      1.00000
    164      -7.3763      1.00000
    165      -7.3539      1.00000
    166      -7.3462      1.00000
    167      -7.3348      1.00000
    168      -7.3211      1.00000
    169      -7.3140      1.00000
    170      -7.3050      1.00000
    171      -7.2893      1.00000
    172      -7.2842      1.00000
    173      -7.2757      1.00000
    174      -7.2676      1.00000
    175      -7.2622      1.00000
    176      -7.2588      1.00000
    177      -7.2490      1.00000
    178      -7.2415      1.00000
    179      -7.2360      1.00000
    180      -7.2324      1.00000
    181      -7.2203      1.00000
    182      -7.2144      1.00000
    183      -7.2054      1.00000
    184      -7.1987      1.00000
    185      -7.1784      1.00000
    186      -7.1604      1.00000
    187      -7.1505      1.00000
    188      -7.1394      1.00000
    189      -7.1324      1.00000
    190      -7.1230      1.00000
    191      -7.0990      1.00000
    192      -7.0890      1.00000
    193      -7.0700      1.00000
    194      -7.0579      1.00000
    195      -7.0512      1.00000
    196      -7.0402      1.00000
    197      -7.0269      1.00000
    198      -7.0185      1.00000
    199      -7.0145      1.00000
    200      -7.0095      1.00000
    201      -7.0001      1.00000
    202      -6.9905      1.00000
    203      -6.9878      1.00000
    204      -6.9788      1.00000
    205      -6.9738      1.00000
    206      -6.9705      1.00000
    207      -6.9641      1.00000
    208      -6.9538      1.00000
    209      -6.9450      1.00000
    210      -6.9320      1.00000
    211      -6.9246      1.00000
    212      -6.9172      1.00000
    213      -6.9094      1.00000
    214      -6.9050      1.00000
    215      -6.8838      1.00000
    216      -6.8720      1.00000
    217      -6.8629      1.00000
    218      -6.8540      1.00000
    219      -6.8310      1.00000
    220      -6.8257      1.00000
    221      -6.8153      1.00000
    222      -6.8007      1.00000
    223      -6.7932      1.00000
    224      -6.7888      1.00000
    225      -6.7718      1.00000
    226      -6.7461      1.00000
    227      -6.7172      1.00000
    228      -6.7032      1.00000
    229      -6.6911      1.00000
    230      -6.6833      1.00000
    231      -6.6705      1.00000
    232      -6.6575      1.00000
    233      -6.6307      1.00000
    234      -6.6244      1.00000
    235      -6.6149      1.00000
    236      -6.6019      1.00000
    237      -6.5986      1.00000
    238      -6.5949      1.00000
    239      -6.5874      1.00000
    240      -6.5811      1.00000
    241      -6.5705      1.00000
    242      -6.5696      1.00000
    243      -6.5589      1.00000
    244      -6.5561      1.00000
    245      -6.5496      1.00000
    246      -6.5319      1.00000
    247      -6.5262      1.00000
    248      -6.5187      1.00000
    249      -6.5054      1.00000
    250      -6.5009      1.00000
    251      -6.4794      1.00000
    252      -6.4719      1.00000
    253      -6.4688      1.00000
    254      -6.4612      1.00000
    255      -6.4532      1.00000
    256      -6.4465      1.00000
    257      -6.4313      1.00000
    258      -6.4264      1.00000
    259      -6.4179      1.00000
    260      -6.4097      1.00000
    261      -6.3909      1.00000
    262      -6.3849      1.00000
    263      -6.3754      1.00000
    264      -6.3707      1.00000
    265      -6.3637      1.00000
    266      -6.3545      1.00000
    267      -6.3497      1.00000
    268      -6.3385      1.00000
    269      -6.3291      1.00000
    270      -6.3159      1.00000
    271      -6.3085      1.00000
    272      -6.3009      1.00000
    273      -6.2856      1.00000
    274      -6.2740      1.00000
    275      -6.2577      1.00000
    276      -6.2514      1.00000
    277      -6.2426      1.00000
    278      -6.2366      1.00000
    279      -6.2204      1.00000
    280      -6.2150      1.00000
    281      -6.1882      1.00000
    282      -6.1835      1.00000
    283      -6.1785      1.00000
    284      -6.1636      1.00000
    285      -6.1400      1.00000
    286      -6.1356      1.00000
    287      -6.1222      1.00000
    288      -6.0969      1.00000
    289      -6.0795      1.00000
    290      -6.0617      1.00000
    291      -6.0181      1.00000
    292      -5.7650      1.00000
    293      -5.7536      1.00000
    294      -5.7392      1.00000
    295      -5.7336      1.00000
    296      -5.7144      1.00000
    297      -5.7084      1.00000
    298      -5.6389      1.00000
    299      -5.6279      1.00000
    300      -5.6128      1.00000
    301      -5.6005      1.00000
    302      -5.5799      1.00000
    303      -5.5398      1.00000
    304      -5.5060      1.00000
    305      -5.3213      1.00000
    306      -5.2054      1.00000
    307      -5.0702      1.00000
    308      -5.0598      1.00000
    309      -4.9954      1.00000
    310      -4.9421      1.00000
    311      -4.8238      1.00000
    312      -4.8179      1.00000
    313      -4.7555      1.00000
    314      -4.7226      1.00000
    315      -4.5408      1.00000
    316      -4.4496      1.00000
    317      -4.4378      1.00000
    318      -4.4058      1.00000
    319      -4.3541      1.00000
    320      -4.3315      1.00000
    321      -4.3161      1.00000
    322      -4.2930      1.00000
    323      -4.2050      1.00000
    324      -4.1842      1.00000
    325      -4.1443      1.00000
    326      -4.0974      1.00000
    327      -4.0795      1.00000
    328      -4.0610      1.00000
    329      -4.0286      1.00000
    330      -3.8886      1.00000
    331      -3.8066      1.00000
    332      -3.7360      1.00000
    333      -3.7012      1.00000
    334      -3.6051      1.00000
    335      -3.4929      1.00000
    336      -3.4355      1.00000
    337      -3.3183      1.00000
    338      -3.2309      1.00000
    339      -3.1838      1.00000
    340      -3.1328      1.00000
    341      -3.0686      1.00000
    342      -3.0458      1.00000
    343      -3.0013      1.00000
    344      -2.9770      1.00000
    345      -2.9587      1.00000
    346      -2.9017      1.00000
    347      -2.8892      1.00000
    348      -2.8568      1.00000
    349      -2.8175      1.00000
    350      -2.7862      1.00000
    351      -2.7476      1.00000
    352      -2.7277      1.00000
    353      -2.7149      1.00000
    354      -2.6951      1.00000
    355      -2.6427      1.00000
    356      -2.6061      1.00000
    357      -2.5920      1.00000
    358      -2.5560      1.00000
    359      -2.5203      1.00000
    360      -2.4945      1.00000
    361      -2.4650      1.00000
    362      -2.4398      1.00000
    363      -2.4000      1.00000
    364      -2.3843      1.00000
    365      -2.3492      1.00000
    366      -2.3129      1.00000
    367      -2.2689      1.00000
    368      -2.2198      1.00000
    369      -2.2002      1.00000
    370      -2.1347      1.00000
    371      -2.1005      1.00000
    372      -2.0875      1.00000
    373      -2.0455      1.00000
    374      -2.0326      1.00000
    375      -2.0198      1.00000
    376      -2.0021      1.00000
    377      -1.9699      1.00000
    378      -1.9516      1.00000
    379      -1.9078      1.00000
    380      -1.8912      1.00000
    381      -1.8587      1.00000
    382      -1.8267      1.00000
    383      -1.8052      1.00000
    384      -1.7537      1.00000
    385      -1.7449      1.00000
    386      -1.7212      1.00000
    387      -1.7031      1.00000
    388      -1.6665      1.00000
    389      -1.6626      1.00000
    390      -1.6559      1.00000
    391      -1.6171      1.00000
    392      -1.5847      1.00000
    393      -1.5582      1.00000
    394      -1.5412      1.00000
    395      -1.5094      1.00000
    396      -1.4959      1.00000
    397      -1.4615      1.00000
    398      -1.4464      1.00000
    399      -1.4334      1.00000
    400      -1.3932      1.00000
    401      -1.3736      1.00000
    402      -1.3086      1.00000
    403      -1.3001      1.00000
    404      -1.2758      1.00000
    405      -1.2328      1.00000
    406      -1.2178      1.00000
    407      -1.2002      1.00000
    408      -1.1730      1.00000
    409      -1.1551      1.00000
    410      -1.1391      1.00000
    411      -1.1028      1.00000
    412      -1.0933      1.00000
    413      -1.0768      1.00000
    414      -1.0627      1.00000
    415      -1.0372      1.00000
    416      -1.0282      1.00000
    417      -1.0004      1.00000
    418      -0.9866      1.00000
    419      -0.9703      1.00000
    420      -0.9515      1.00000
    421      -0.9320      1.00000
    422      -0.9167      1.00000
    423      -0.8917      1.00000
    424      -0.8428      1.00000
    425      -0.8179      1.00000
    426      -0.7920      1.00000
    427      -0.7754      1.00000
    428      -0.7523      1.00000
    429      -0.7409      1.00000
    430      -0.7155      1.00000
    431      -0.7075      1.00000
    432      -0.6758      1.00000
    433      -0.6326      1.00000
    434      -0.6159      1.00000
    435      -0.5963      1.00000
    436      -0.5754      1.00000
    437      -0.5458      1.00000
    438      -0.5328      1.00000
    439      -0.5099      1.00000
    440      -0.4971      1.00000
    441      -0.4648      1.00000
    442      -0.4321      1.00000
    443      -0.3759      1.00000
    444      -0.3198      1.00000
    445      -0.2994      1.00000
    446      -0.2755      1.00000
    447      -0.2411      1.00000
    448      -0.2141      1.00000
    449      -0.1880      1.00000
    450      -0.1828      1.00000
    451      -0.1642      1.00000
    452      -0.1482      1.00000
    453      -0.1313      1.00000
    454      -0.1248      1.00000
    455      -0.1035      1.00000
    456      -0.0279      1.00000
    457      -0.0114      1.00000
    458       0.0003      1.00000
    459       0.0263      1.00000
    460       0.0596      1.00000
    461       0.0709      1.00000
    462       0.0980      1.00000
    463       0.1466      1.00000
    464       0.1594      1.00000
    465       0.1819      1.00000
    466       0.2079      1.00000
    467       0.2338      1.00000
    468       0.2456      1.00000
    469       0.2808      1.00000
    470       0.2940      1.00000
    471       0.3300      1.00000
    472       0.3463      1.00000
    473       0.3726      1.00000
    474       0.4057      1.00000
    475       0.4131      1.00000
    476       0.4362      1.00000
    477       0.4569      1.00000
    478       0.4778      1.00000
    479       0.4995      1.00000
    480       0.5226      1.00000
    481       0.5428      1.00000
    482       0.5712      1.00000
    483       0.5869      1.00000
    484       0.6082      1.00000
    485       0.6352      1.00000
    486       0.6886      1.00000
    487       0.7150      1.00000
    488       0.7363      1.00000
    489       0.7808      1.00000
    490       0.8075      1.00000
    491       0.8258      1.00000
    492       0.8509      1.00000
    493       0.8681      1.00000
    494       0.9027      1.00000
    495       0.9585      1.00000
    496       0.9886      1.00000
    497       1.0109      1.00000
    498       1.1047      1.00000
    499       1.1777      1.00000
    500       1.2760      1.00000
    501       1.3505      1.00000
    502       1.3784      1.00000
    503       1.4732      1.00000
    504       1.4950      1.00000
    505       1.5235      1.00000
    506       1.6322      1.00000
    507       1.7263      1.00000
    508       1.7732      1.00000
    509       1.8505      1.00000
    510       2.0009      1.00000
    511       2.0495      1.00000
    512       2.1324      1.00000
    513       2.2374      1.00000
    514       2.2821      1.00000
    515       2.3454      1.00000
    516       2.3761      1.00000
    517       2.5554      1.00000
    518       2.6365      1.00000
    519       3.0365      1.00000
    520       3.3736      1.00000
    521       3.6312      1.00000
    522       3.7222      1.00000
    523       3.7657      1.00000
    524       3.8438      1.00000
    525       3.9167      1.00000
    526       3.9660      1.00000
    527       4.0562      1.00000
    528       4.1973      1.00000
    529       4.2683      1.00000
    530       4.3287      1.00000
    531       4.4209      1.00000
    532       4.4900      1.00000
    533       4.5566      1.00000
    534       4.7730      1.00000
    535       4.9383      1.00000
    536       5.0051      1.00000
    537       5.3880      1.00000
    538       5.4746      1.00000
    539       5.9825      1.00000
    540       6.3055      1.00000
    541       6.7715      1.00000
    542       7.1419      1.00000
    543       7.5455      1.00000
    544       7.6066      1.00000
    545      14.4011      1.00000
    546      14.6040      1.00000
    547      14.7264      1.00000
    548      14.8296      1.00000
    549      14.8767      1.00000
    550      14.9092      1.00000
    551      14.9386      1.00000
    552      14.9814      1.00000
    553      15.0183      1.00000
    554      15.0363      1.00000
    555      15.0939      1.00000
    556      15.1036      1.00000
    557      15.1365      1.00000
    558      15.1704      1.00000
    559      15.1878      1.00000
    560      15.2010      1.00000
    561      15.2075      1.00000
    562      15.2104      1.00000
    563      15.2124      1.00000
    564      15.2180      1.00000
    565      15.2268      1.00000
    566      15.2434      1.00000
    567      15.2685      1.00000
    568      15.2728      1.00000
    569      15.2991      1.00000
    570      15.3230      1.00000
    571      15.3241      1.00000
    572      15.3269      1.00000
    573      15.3464      1.00000
    574      15.3485      1.00000
    575      15.3539      1.00000
    576       5.3553      0.99772
    577       5.3612      0.93037
    578       5.3659      0.58296
    579       5.3950      0.01320
    580       5.4046      0.00175
    581       5.4061      0.00001
    582       5.4307      0.00000
    583       5.4329      0.00000
    584       5.4337      0.00000
    585       5.4393      0.00000
    586       5.4487      0.00000
    587       5.4506      0.00000
    588       5.4546      0.00000
    589       5.4678      0.00000
    590       5.4709      0.00000
    591       5.4719      0.00000
    592       5.4720      0.00000
    593       5.4900      0.00000
    594       5.5190      0.00000
    595       5.5439      0.00000
    596       5.5613      0.00000
    597       5.5870      0.00000
    598       5.8071      0.00000
    599       5.8558      0.00000
    600       6.0726      0.00000
    601       6.2557      0.00000
    602       6.2961      0.00000
    603       6.3188      0.00000
    604       6.3272      0.00000
    605       6.3336      0.00000
    606       6.4122      0.00000
    607       6.4630      0.00000
    608       6.4856      0.00000
    609       6.5334      0.00000
    610       6.5365      0.00000
    611       6.6035      0.00000
    612       6.6105      0.00000
    613       6.6178      0.00000
    614       6.6250      0.00000
    615       6.6493      0.00000
    616       6.6759      0.00000
    617       6.7233      0.00000
    618       6.8647      0.00000
    619       6.8670      0.00000
    620       6.9046      0.00000
    621       6.9154      0.00000
    622       6.9345      0.00000
    623       6.9706      0.00000
    624       6.9997      0.00000
    625       7.0134      0.00000
    626       7.0427      0.00000
    627       7.0468      0.00000
    628       7.0642      0.00000
    629       7.0740      0.00000
    630       7.0846      0.00000
    631       7.0917      0.00000
    632       7.1206      0.00000
    633       7.1223      0.00000
    634       7.1346      0.00000
    635       7.1819      0.00000
    636       7.2140      0.00000
    637       7.2286      0.00000
    638       7.2332      0.00000
    639       7.2343      0.00000
    640       7.2783      0.00000
    641       7.2796      0.00000
    642       7.2836      0.00000
    643       7.2862      0.00000
    644       7.3008      0.00000
    645       7.3047      0.00000
    646       7.3185      0.00000
    647       7.3362      0.00000
    648       7.3388      0.00000
    649       7.3612      0.00000
    650       7.3723      0.00000
    651       7.4012      0.00000
    652       7.4191      0.00000
    653       7.4679      0.00000
    654       7.4831      0.00000
    655       7.4864      0.00000
    656       7.4916      0.00000
    657       7.5034      0.00000
    658       7.5051      0.00000
    659       7.5070      0.00000
    660       7.5383      0.00000
    661       7.5404      0.00000
    662       7.5564      0.00000
    663       7.5745      0.00000
    664       7.5749      0.00000
    665       7.5778      0.00000
    666       7.5881      0.00000
    667       7.5900      0.00000
    668       7.6048      0.00000
    669       7.6062      0.00000
    670       7.6094      0.00000
    671       7.6217      0.00000
    672       7.6281      0.00000
    673       7.6335      0.00000
    674       7.6397      0.00000
    675       7.6467      0.00000
    676       7.6487      0.00000
    677       7.6506      0.00000
    678       7.6520      0.00000
    679       7.6645      0.00000
    680       7.6686      0.00000
    681       7.6696      0.00000
    682       7.6831      0.00000
    683       7.6935      0.00000
    684       7.6948      0.00000
    685       7.6975      0.00000
    686       7.7461      0.00000
    687       7.7475      0.00000
    688       7.7496      0.00000
    689       7.7533      0.00000
    690       7.7567      0.00000
    691       7.7663      0.00000
    692       7.7809      0.00000
    693       7.8277      0.00000
    694       7.8482      0.00000
    695       7.8720      0.00000
    696       7.8978      0.00000
    697       7.9076      0.00000
    698       7.9179      0.00000
    699       7.9243      0.00000
    700       7.9280      0.00000
    701       7.9315      0.00000
    702       7.9333      0.00000
    703       7.9357      0.00000
    704       7.9550      0.00000
    705       7.9579      0.00000
    706       7.9586      0.00000
    707       7.9597      0.00000
    708       7.9731      0.00000
    709       7.9742      0.00000
    710       7.9773      0.00000
    711       7.9943      0.00000
    712       8.0035      0.00000
    713       8.0043      0.00000
    714       8.0134      0.00000
    715       8.0147      0.00000
    716       8.0653      0.00000
    717       8.0693      0.00000
    718       8.1002      0.00000
    719       8.1025      0.00000
    720       8.1103      0.00000
    721       8.1677      0.00000
    722       8.1706      0.00000
    723       8.1714      0.00000
    724       8.1905      0.00000
    725       8.1975      0.00000
    726       8.2113      0.00000
    727       8.2242      0.00000
    728       8.2329      0.00000
    729       8.2342      0.00000
    730       8.2392      0.00000
    731       8.2965      0.00000
    732       8.3625      0.00000
    733       8.3632      0.00000
    734       8.3825      0.00000
    735       8.3936      0.00000
    736       8.3963      0.00000
    737       8.4034      0.00000
    738       8.4789      0.00000
    739       8.4928      0.00000
    740       8.5798      0.00000
    741       8.5896      0.00000
    742       8.6374      0.00000
    743       8.6390      0.00000
    744       8.6605      0.00000
    745       8.6648      0.00000
    746       8.6707      0.00000
    747       8.6810      0.00000
    748       8.6911      0.00000
    749       8.7011      0.00000
    750       8.7036      0.00000
    751       8.7292      0.00000
    752       8.7446      0.00000
    753       8.7495      0.00000
    754       8.7664      0.00000
    755       8.7877      0.00000
    756       8.7982      0.00000
    757       8.8325      0.00000
    758       8.8500      0.00000
    759       8.8524      0.00000
    760       8.8726      0.00000
    761       8.8757      0.00000
    762       8.8913      0.00000
    763       8.8924      0.00000
    764       8.9227      0.00000
    765       8.9283      0.00000
    766       8.9293      0.00000
    767       8.9362      0.00000
    768       8.9707      0.00000
    769       8.9751      0.00000
    770       8.9868      0.00000
    771       9.1568      0.00000
    772       9.1741      0.00000
    773       9.2231      0.00000
    774       9.2839      0.00000
    775       9.2868      0.00000
    776       9.4247      0.00000
    777       9.8263      0.00000
    778      10.2990      0.00000
    779      10.5466      0.00000
    780      10.8172      0.00000
    781      11.6811      0.00000
    782      11.7682      0.00000
    783      12.3901      0.00000
    784      12.5037      0.00000
    785      12.5753      0.00000
    786      12.7975      0.00000
    787      13.6209      0.00000
    788      15.3621      0.00000
    789      16.4629      0.00000
    790      16.8117      0.00000
    791      17.0412      0.00000
    792      17.8470      0.00000
    793      18.0783      0.00000
    794      18.2251      0.00000
    795      18.6391      0.00000
    796      18.6456      0.00000
    797      19.2323      0.00000
    798      19.2463      0.00000
    799      19.3734      0.00000
    800      19.3999      0.00000
    801      19.4264      0.00000
    802      19.5359      0.00000
    803      19.7736      0.00000
    804      20.0128      0.00000
    805      20.1674      0.00000
    806      20.3443      0.00000
    807      20.3534      0.00000
    808      20.7663      0.00000
    809      20.7884      0.00000
    810      21.1134      0.00000
    811      21.3892      0.00000
    812      22.0501      0.00000
    813      23.8484      0.00000
    814      24.5094      0.00000
    815      26.0533      0.00000
    816      26.6539      0.00000
    817      26.6692      0.00000
    818      97.3671      0.00000
    819     104.3747      0.00000
    820     121.9546      0.00000
    821     147.7216      0.00000
    822     158.0495      0.00000
    823     182.7110      0.00000
    824     228.9972      0.00000
    825     252.7752      0.00000
    826     261.6618      0.00000
    827     279.5472      0.00000
    828     305.6107      0.00000
    829     328.4061      0.00000
    830     361.0904      0.00000
    831     365.6741      0.00000
    832     370.4577      0.00000

 k-point     2 :       0.5000    0.0000    0.0000
  band No.  band energies     occupation 
      1     -11.6878      1.00000
      2     -11.6353      1.00000
      3     -11.5877      1.00000
      4     -11.4838      1.00000
      5     -11.4652      1.00000
      6     -11.3815      1.00000
      7     -11.3268      1.00000
      8     -11.2738      1.00000
      9     -11.2453      1.00000
     10     -11.1538      1.00000
     11     -11.0754      1.00000
     12     -11.0199      1.00000
     13     -10.9554      1.00000
     14     -10.8960      1.00000
     15     -10.8406      1.00000
     16     -10.7995      1.00000
     17     -10.7853      1.00000
     18     -10.6703      1.00000
     19     -10.6354      1.00000
     20     -10.5670      1.00000
     21     -10.5484      1.00000
     22     -10.4357      1.00000
     23     -10.3875      1.00000
     24     -10.3364      1.00000
     25     -10.2424      1.00000
     26     -10.1428      1.00000
     27     -10.0603      1.00000
     28      -9.9609      1.00000
     29      -9.8858      1.00000
     30      -9.8706      1.00000
     31      -9.8336      1.00000
     32      -9.7544      1.00000
     33      -9.7131      1.00000
     34      -9.6756      1.00000
     35      -9.6233      1.00000
     36      -9.5546      1.00000
     37      -9.4742      1.00000
     38      -9.4256      1.00000
     39      -9.3263      1.00000
     40      -9.2907      1.00000
     41      -9.2260      1.00000
     42      -9.1077      1.00000
     43      -9.0301      1.00000
     44      -8.9778      1.00000
     45      -8.9604      1.00000
     46      -8.9498      1.00000
     47      -8.9181      1.00000
     48      -8.8852      1.00000
[...]
 l=   3
     0.0000000     0.0000000     0.0000000     0.0000000     0.0000000     0.0000000     0.0000000
     0.0000000     0.0000000     0.0000000     0.0000000     0.0000000     0.0000000     0.0000000
     0.0000000     0.0000000     0.0000000     0.0000000     0.0000000     0.0000000     0.0000000
     0.0000000     0.0000000     0.0000000     0.0000000     0.0000000     0.0000000     0.0000000
     0.0000000     0.0000000     0.0000000     0.0000000     0.0000000     0.0000000     0.0000000
     0.0000000     0.0000000     0.0000000     0.0000000     0.0000000     0.0000000     0.0000000
     0.0000000     0.0000000     0.0000000     0.0000000     0.0000000     0.0000000     0.0000000

 Ion:   61  E_soc:     -0.1768521
 l=   1
     0.0000000    -0.0295018    -0.0283458
    -0.0295018     0.0000000    -0.0295464
    -0.0283458    -0.0295464    -0.0000000
 l=   2
     0.0000000    -0.0000029     0.0000000    -0.0001771    -0.0005802
    -0.0000029     0.0000000    -0.0001045    -0.0000494    -0.0000369
     0.0000000    -0.0001045     0.0000000    -0.0000322     0.0000000
    -0.0001771    -0.0000494    -0.0000322     0.0000000    -0.0000488
    -0.0005802    -0.0000369     0.0000000    -0.0000488     0.0000000
 l=   3
     0.0000000     0.0000000     0.0000000     0.0000000     0.0000000     0.0000000     0.0000000
     0.0000000     0.0000000     0.0000000     0.0000000     0.0000000     0.0000000     0.0000000
     0.0000000     0.0000000     0.0000000     0.0000000     0.0000000     0.0000000     0.0000000
     0.0000000     0.0000000     0.0000000     0.0000000     0.0000000     0.0000000     0.0000000
     0.0000000     0.0000000     0.0000000     0.0000000     0.0000000     0.0000000     0.0000000
     0.0000000     0.0000000     0.0000000     0.0000000     0.0000000     0.0000000     0.0000000
     0.0000000     0.0000000     0.0000000     0.0000000     0.0000000     0.0000000     0.0000000

 Ion:   62  E_soc:     -0.1812792
 l=   1
     0.0000000    -0.0306027    -0.0304586
    -0.0306027     0.0000000    -0.0294097
    -0.0304586    -0.0294097     0.0000000
 l=   2
     0.0000000    -0.0000246     0.0000000    -0.0000199     0.0000298
    -0.0000246     0.0000000    -0.0000450    -0.0000172    -0.0000304
     0.0000000    -0.0000450     0.0000000    -0.0000527     0.0000000
    -0.0000199    -0.0000172    -0.0000527     0.0000000    -0.0000085
     0.0000298    -0.0000304     0.0000000    -0.0000085     0.0000000
 l=   3
     0.0000000     0.0000000     0.0000000     0.0000000     0.0000000     0.0000000     0.0000000
     0.0000000     0.0000000     0.0000000     0.0000000     0.0000000     0.0000000     0.0000000
     0.0000000     0.0000000     0.0000000     0.0000000     0.0000000     0.0000000     0.0000000
     0.0000000     0.0000000     0.0000000     0.0000000     0.0000000     0.0000000     0.0000000
     0.0000000     0.0000000     0.0000000     0.0000000     0.0000000     0.0000000     0.0000000
     0.0000000     0.0000000     0.0000000     0.0000000     0.0000000     0.0000000     0.0000000
     0.0000000     0.0000000     0.0000000     0.0000000     0.0000000     0.0000000     0.0000000

 Ion:   63  E_soc:     -0.1853250
 l=   1
     0.0000000    -0.0316599    -0.0313187
    -0.0316599     0.0000000    -0.0296513
    -0.0313187    -0.0296513     0.0000000
 l=   2
     0.0000000    -0.0000055     0.0000000    -0.0000059     0.0000688
    -0.0000055     0.0000000    -0.0000427     0.0000071    -0.0000023
     0.0000000    -0.0000427     0.0000000    -0.0000397     0.0000000
    -0.0000059     0.0000071    -0.0000397     0.0000000    -0.0000124
     0.0000688    -0.0000023     0.0000000    -0.0000124     0.0000000
 l=   3
     0.0000000     0.0000000     0.0000000     0.0000000     0.0000000     0.0000000     0.0000000
     0.0000000     0.0000000     0.0000000     0.0000000     0.0000000     0.0000000     0.0000000
     0.0000000     0.0000000     0.0000000     0.0000000     0.0000000     0.0000000     0.0000000
     0.0000000     0.0000000     0.0000000     0.0000000     0.0000000     0.0000000     0.0000000
     0.0000000     0.0000000     0.0000000     0.0000000     0.0000000     0.0000000     0.0000000
     0.0000000     0.0000000     0.0000000     0.0000000     0.0000000     0.0000000     0.0000000
     0.0000000     0.0000000     0.0000000     0.0000000     0.0000000     0.0000000     0.0000000

 Ion:   64  E_soc:     -0.1810964
 l=   1
     0.0000000    -0.0305843    -0.0304978
    -0.0305843     0.0000000    -0.0292415
    -0.0304978    -0.0292415     0.0000000
 l=   2
     0.0000000    -0.0000125     0.0000000    -0.0000399     0.0000354
    -0.0000125     0.0000000    -0.0000856    -0.0000228    -0.0000222
     0.0000000    -0.0000856     0.0000000    -0.0000445     0.0000000
    -0.0000399    -0.0000228    -0.0000445     0.0000000    -0.0000325
     0.0000354    -0.0000222     0.0000000    -0.0000325     0.0000000
 l=   3
     0.0000000     0.0000000     0.0000000     0.0000000     0.0000000     0.0000000     0.0000000
     0.0000000     0.0000000     0.0000000     0.0000000     0.0000000     0.0000000     0.0000000
     0.0000000     0.0000000     0.0000000     0.0000000     0.0000000     0.0000000     0.0000000
     0.0000000     0.0000000     0.0000000     0.0000000     0.0000000     0.0000000     0.0000000
     0.0000000     0.0000000     0.0000000     0.0000000     0.0000000     0.0000000     0.0000000
     0.0000000     0.0000000     0.0000000     0.0000000     0.0000000     0.0000000     0.0000000
     0.0000000     0.0000000     0.0000000     0.0000000     0.0000000     0.0000000     0.0000000

 Ion:   65  E_soc:     -0.1878865
 l=   1
     0.0000000    -0.0314387    -0.0323017
    -0.0314387     0.0000000    -0.0301450
    -0.0323017    -0.0301450     0.0000000
 l=   2
     0.0000000    -0.0000185     0.0000000     0.0000020     0.0000771
    -0.0000185     0.0000000    -0.0000341    -0.0000057    -0.0000257
     0.0000000    -0.0000341     0.0000000    -0.0000380     0.0000000
     0.0000020    -0.0000057    -0.0000380     0.0000000    -0.0000149
     0.0000771    -0.0000257     0.0000000    -0.0000149     0.0000000
 l=   3
     0.0000000     0.0000000     0.0000000     0.0000000     0.0000000     0.0000000     0.0000000
     0.0000000     0.0000000     0.0000000     0.0000000     0.0000000     0.0000000     0.0000000
     0.0000000     0.0000000     0.0000000     0.0000000     0.0000000     0.0000000     0.0000000
     0.0000000     0.0000000     0.0000000     0.0000000     0.0000000     0.0000000     0.0000000
     0.0000000     0.0000000     0.0000000     0.0000000     0.0000000     0.0000000     0.0000000
     0.0000000     0.0000000     0.0000000     0.0000000     0.0000000     0.0000000     0.0000000
     0.0000000     0.0000000     0.0000000     0.0000000     0.0000000     0.0000000     0.0000000



 total charge     

# of ion       s       p       d       tot
------------------------------------------
    1        0.469   0.315   8.705   9.489
    2        0.473   0.315   9.170   9.958
    3        0.485   0.317   9.237  10.038
    4        0.485   0.319   9.166   9.969
    5        0.517   0.334   9.516  10.367
    6        0.519   0.332   9.513  10.365
    7        0.520   0.334   9.516  10.370
    8        0.523   0.330   9.519  10.373
    9        0.479   0.318   9.091   9.888
   10        0.492   0.313   9.150   9.955
   11        0.476   0.317   9.148   9.941
   12        0.473   0.318   9.100   9.891
   13        0.520   0.335   9.517  10.372
   14        0.516   0.335   9.516  10.367
   15        0.519   0.329   9.516  10.364
   16        0.518   0.334   9.515  10.368
   17        0.513   0.335   9.502  10.350
   18        0.511   0.335   9.502  10.348
   19        0.521   0.332   9.502  10.354
   20        0.511   0.336   9.501  10.348
   21        0.515   0.338   9.505  10.359
   22        0.530   0.332   9.514  10.375
   23        0.518   0.337   9.506  10.361
   24        0.516   0.338   9.506  10.361
   25        0.512   0.336   9.501  10.349
   26        0.512   0.335   9.507  10.354
   27        0.509   0.335   9.501  10.345
   28        0.513   0.331   9.504  10.347
   29        0.529   0.331   9.514  10.375
   30        0.514   0.337   9.506  10.357
   31        0.515   0.338   9.506  10.359
   32        0.515   0.335   9.506  10.357
   33        0.753   0.262   9.515  10.529
   34        1.121   2.110   0.042   3.272
   35        1.148   2.129   0.049   3.325
   36        1.141   2.095   0.043   3.279
   37        1.128   2.115   0.041   3.284
   38        1.237   2.213   0.036   3.486
   39        1.262   2.214   0.038   3.515
   40        1.258   2.210   0.034   3.502
   41        1.237   2.213   0.035   3.485
   42        1.124   2.102   0.042   3.268
   43        1.127   2.110   0.042   3.279
   44        1.125   2.110   0.042   3.277
   45        1.127   2.098   0.043   3.268
   46        1.241   2.211   0.035   3.487
   47        1.243   2.211   0.034   3.488
   48        1.246   2.209   0.034   3.489
   49        1.248   2.211   0.038   3.497
   50        1.237   2.198   0.054   3.489
   51        1.236   2.209   0.046   3.492
   52        1.264   2.206   0.042   3.512
   53        1.259   2.208   0.040   3.506
   54        1.149   2.115   0.047   3.312
   55        1.156   2.105   0.048   3.310
   56        1.117   2.126   0.042   3.285
   57        1.118   2.131   0.041   3.290
   58        1.255   2.209   0.035   3.500
   59        1.244   2.213   0.038   3.495
   60        1.265   2.208   0.043   3.516
   61        1.231   2.200   0.062   3.494
   62        1.121   2.130   0.041   3.292
   63        1.155   2.112   0.048   3.314
   64        1.117   2.120   0.042   3.279
   65        1.150   2.118   0.047   3.315
--------------------------------------------------
tot         55.081  79.985 311.838 446.904



 magnetization (x)

# of ion       s       p       d       tot
------------------------------------------
    1        0.000   0.003  -0.104  -0.102
    2        0.001  -0.001   0.005   0.006
    3        0.013   0.000   0.020   0.033
    4        0.017   0.001   0.017   0.034
    5        0.015  -0.000   0.001   0.016
    6        0.015   0.000   0.002   0.018
    7        0.013  -0.001   0.000   0.013
    8        0.009  -0.001   0.001   0.009
    9        0.014   0.001   0.053   0.069
   10        0.017   0.002   0.020   0.039
   11        0.012   0.001   0.013   0.026
   12        0.011  -0.000   0.058   0.069
   13        0.013   0.000   0.001   0.014
   14        0.014   0.000   0.002   0.015
   15        0.012   0.000   0.001   0.014
   16        0.012   0.000   0.000   0.013
   17        0.007   0.001   0.004   0.012
   18        0.009   0.002   0.003   0.013
   19        0.010   0.001   0.001   0.011
   20        0.012  -0.000   0.001   0.012
   21        0.009   0.001   0.002   0.012
   22        0.019   0.001   0.003   0.023
   23        0.012   0.001   0.001   0.014
   24        0.011   0.000   0.001   0.013
   25        0.010   0.001   0.002   0.013
   26        0.007   0.001   0.001   0.009
   27        0.006   0.001   0.001   0.009
   28        0.008   0.000   0.000   0.009
   29        0.017   0.001   0.002   0.020
   30        0.012   0.000   0.001   0.013
   31        0.010  -0.000   0.001   0.011
   32        0.006   0.001   0.002   0.009
   33        0.007   0.012   0.002   0.022
   34        0.011   0.038   0.003   0.053
   35        0.014   0.039   0.004   0.057
   36        0.008   0.022   0.004   0.035
   37        0.011   0.026   0.003   0.040
   38       -0.041   0.032   0.003  -0.006
   39       -0.015   0.034   0.003   0.022
   40       -0.032   0.031   0.002   0.000
   41       -0.044   0.032   0.002  -0.010
   42        0.006   0.030   0.004   0.040
   43        0.009   0.028   0.003   0.040
   44        0.004   0.027   0.003   0.033
   45        0.007   0.024   0.003   0.034
   46       -0.044   0.031   0.003  -0.010
   47       -0.038   0.033   0.003  -0.003
   48       -0.042   0.032   0.002  -0.007
   49       -0.045   0.030   0.002  -0.013
   50       -0.029   0.039  -0.001   0.009
   51       -0.037   0.035   0.001  -0.002
   52       -0.029   0.034   0.001   0.006
   53       -0.030   0.031   0.000   0.002
   54        0.009   0.036   0.004   0.049
   55        0.011   0.034   0.003   0.048
   56        0.007   0.029   0.003   0.040
   57        0.004   0.028   0.002   0.034
   58       -0.026   0.031   0.002   0.007
   59       -0.036   0.032   0.002  -0.002
   60       -0.030   0.027   0.003   0.000
   61       -0.033   0.034  -0.005  -0.005
   62        0.009   0.032   0.003   0.044
   63        0.010   0.043   0.003   0.056
   64        0.006   0.042   0.002   0.051
   65        0.006   0.045   0.003   0.054
--------------------------------------------------
tot         -0.061   1.071   0.193   1.203



 magnetization (y)

# of ion       s       p       d       tot
------------------------------------------
    1        0.015   0.001   0.024   0.041
    2        0.005   0.000  -0.002   0.004
    3        0.012  -0.000   0.000   0.012
    4        0.010   0.001   0.004   0.015
    5        0.014  -0.001   0.001   0.015
    6        0.012   0.000   0.002   0.014
    7        0.015  -0.000   0.001   0.015
    8        0.009  -0.001   0.001   0.008
    9        0.007   0.001   0.012   0.020
   10        0.021   0.001   0.014   0.036
   11        0.005   0.001   0.002   0.008
   12        0.011   0.001  -0.018  -0.006
   13        0.014  -0.001   0.000   0.013
   14        0.013  -0.000   0.001   0.014
   15        0.015   0.001   0.002   0.018
   16        0.010   0.000   0.001   0.012
   17        0.011   0.002   0.001   0.014
   18        0.011   0.002   0.000   0.013
   19        0.010   0.001   0.001   0.012
   20        0.012  -0.000   0.002   0.014
   21        0.009   0.001   0.002   0.012
   22        0.017   0.001   0.002   0.020
   23        0.011   0.001   0.002   0.013
   24        0.012   0.001   0.002   0.015
   25        0.010  -0.000   0.000   0.010
   26        0.005   0.000  -0.002   0.004
   27        0.009   0.000   0.003   0.012
   28        0.005   0.001   0.003   0.009
   29        0.017   0.001   0.002   0.020
   30        0.013  -0.000   0.001   0.014
   31        0.008  -0.000   0.002   0.010
   32        0.009   0.001   0.002   0.012
   33        0.009   0.015   0.001   0.024
   34        0.010   0.036   0.002   0.047
   35        0.011   0.022   0.003   0.037
   36        0.004   0.026   0.003   0.034
   37        0.005   0.033   0.002   0.041
   38       -0.041   0.032   0.002  -0.007
   39       -0.015   0.033   0.002   0.021
   40       -0.034   0.031   0.002  -0.000
   41       -0.043   0.031   0.002  -0.010
   42        0.004   0.030   0.003   0.037
   43        0.008   0.027   0.003   0.037
   44        0.006   0.033   0.003   0.042
   45        0.012   0.043   0.003   0.058
   46       -0.043   0.031   0.003  -0.009
   47       -0.040   0.031   0.003  -0.006
   48       -0.040   0.033   0.003  -0.004
   49       -0.042   0.032   0.003  -0.007
   50       -0.025   0.035  -0.001   0.009
   51       -0.030   0.032   0.001   0.003
   52       -0.030   0.031   0.004   0.006
   53       -0.031   0.032   0.001   0.002
   54        0.009   0.035   0.003   0.047
   55        0.010   0.030   0.003   0.044
   56        0.007   0.042   0.002   0.051
   57        0.010   0.033   0.003   0.046
   58       -0.026   0.032   0.002   0.008
   59       -0.037   0.032   0.004  -0.001
   60       -0.037   0.032  -0.000  -0.005
   61       -0.036   0.032  -0.012  -0.016
   62        0.009   0.037   0.003   0.050
   63        0.010   0.038   0.004   0.052
   64        0.007   0.031   0.002   0.040
   65        0.009   0.033   0.004   0.046
--------------------------------------------------
tot         -0.055   1.074   0.138   1.157



 magnetization (z)

# of ion       s       p       d       tot
------------------------------------------
    1        0.030   0.006   0.049   0.086
    2        0.035   0.006   0.184   0.226
    3        0.022   0.003   0.136   0.161
    4        0.019   0.003   0.131   0.154
    5        0.013   0.000  -0.003   0.011
    6        0.010   0.001  -0.005   0.006
    7        0.012   0.001  -0.003   0.011
    8        0.009  -0.000  -0.001   0.008
    9        0.024   0.003   0.089   0.116
   10        0.040   0.003   0.163   0.206
   11        0.026   0.003   0.170   0.199
   12        0.021   0.004   0.081   0.106
   13        0.013   0.001  -0.002   0.013
   14        0.010  -0.001  -0.003   0.006
   15        0.009   0.000  -0.003   0.006
   16        0.010   0.000  -0.003   0.007
   17        0.006   0.002   0.001   0.009
   18        0.006   0.002  -0.001   0.006
   19        0.011   0.002   0.002   0.015
   20        0.007   0.001   0.001   0.009
   21        0.006   0.003   0.003   0.012
   22        0.018   0.004   0.003   0.025
   23        0.008   0.003   0.003   0.014
   24        0.010   0.002   0.003   0.015
   25        0.012   0.002   0.000   0.014
   26        0.007   0.001   0.005   0.013
   27        0.004   0.003   0.001   0.008
   28        0.008   0.002   0.004   0.014
   29        0.016   0.004   0.004   0.024
   30        0.008   0.002   0.003   0.013
   31        0.007   0.003   0.002   0.012
   32        0.008   0.001   0.003   0.011
   33        0.010   0.022   0.007   0.039
   34        0.029   0.033   0.008   0.070
   35        0.053   0.024   0.012   0.088
   36        0.046   0.032   0.011   0.089
   37        0.028   0.047   0.007   0.082
   38       -0.044   0.028   0.004  -0.012
   39       -0.013   0.030   0.004   0.021
   40       -0.031   0.029   0.003   0.001
   41       -0.044   0.030   0.003  -0.011
   42        0.035   0.041   0.009   0.085
   43        0.034   0.021   0.009   0.064
   44        0.036   0.027   0.009   0.072
   45        0.040   0.028   0.010   0.077
   46       -0.043   0.031   0.004  -0.008
   47       -0.041   0.029   0.003  -0.009
   48       -0.040   0.030   0.003  -0.007
   49       -0.041   0.029   0.005  -0.006
   50       -0.034   0.013   0.020  -0.001
   51       -0.042   0.024   0.011  -0.007
   52       -0.033   0.026   0.004  -0.002
   53       -0.040   0.026   0.005  -0.009
   54        0.052   0.034   0.011   0.097
   55        0.055   0.045   0.011   0.111
   56        0.029   0.035   0.007   0.072
   57        0.031   0.049   0.007   0.087
   58       -0.039   0.028   0.004  -0.006
   59       -0.049   0.027   0.006  -0.016
   60       -0.037   0.028   0.009  -0.000
   61       -0.037   0.017   0.024   0.004
   62        0.031   0.046   0.007   0.084
   63        0.055   0.042   0.011   0.108
   64        0.028   0.040   0.007   0.076
   65        0.055   0.037   0.011   0.103
--------------------------------------------------
tot          0.482   1.101   1.286   2.869


 total amount of memory used by VASP MPI-rank0    80717. kBytes
=======================================================================

   base      :      30000. kBytes
   nonl-proj :       5136. kBytes
   fftplans  :       6592. kBytes
   grid      :      12386. kBytes
   one-center:        186. kBytes
   HF        :        129. kBytes
   nonlr-proj:      10316. kBytes
   wavefun   :      15972. kBytes

  
  
 General timing and accounting informations for this job:
 ========================================================
  
                  Total CPU time used (sec):     2001.679
                            User time (sec):     1981.722
                          System time (sec):       19.957
                         Elapsed time (sec):     2034.274
  
                   Maximum memory used (kb):      636856.
                   Average memory used (kb):           0.
  
                          Minor page faults:      1246473
                          Major page faults:            0
                 Voluntary context switches:        30491
