 +-------------------------------------------------+
 |                                                 |
 |      CCC   AA    SSS  TTTTT  EEEEE  PPPP        |
 |     C     A  A  S       T    E      P   P       |
 |     C     AAAA   SS     T    EEE    PPPP        |
 |     C     A  A     S    T    E      P           |
 |      CCC  A  A  SSS     T    EEEEE  P           |
 |                                                 |
 +-------------------------------------------------+
 |                                                 |
 | Welcome to Academic Release CASTEP version 19.11|          
 | Ab Initio Total Energy Program                  |
 |                                                 |
 | Authors:                                        |
 | M. Segall, M. Probert, C. Pickard, P. Hasnip,   |
 | S. Clark, K. Refson, J. R. Yates, M. Payne      |
 |                                                 |
 | Contributors:                                   |
 | P. Lindan, P. Haynes, J. White, V. Milman,      |
 | N. Govind, M. Gibson, P. Tulip, V. Cocula,      |
 | B. Montanari, D. Quigley, M. Glover,            |
 | L. Bernasconi, A. Perlov, M. Plummer,           |
 | E. McNellis, J. Meyer, J. Gale, D. Jochym       |
 | J. Aarons, B. Walker, R. Gillen, D. Jones       |
 | T. Green, I. J. Bush, C. J. Armstrong,          |
 | E. J. Higgins, E. L. Brown, M. S. McFly,        |
 | J. Wilkins, B-C. Shih, P. J. P. Byrne           |
 |                                                 |
 | Copyright (c) 2000 - 2018                       |
 |                                                 |
 |     Distributed under the terms of an           |
 |     Agreement between the United Kingdom        |
 |     Car-Parrinello (UKCP) Consortium,           |
 |     Daresbury Laboratory and Accelrys, Inc.     |
 |                                                 |
 | Please cite                                     |
 |                                                 |
 |     "First principles methods using CASTEP"     |
 |                                                 |
 |         Zeitschrift fuer Kristallographie       |
 |           220(5-6) pp. 567-570 (2005)           |
 |                                                 |
 | S. J. Clark, M. D. Segall, C. J. Pickard,       |
 | P. J. Hasnip, M. J. Probert, K. Refson,         |
 | M. C. Payne                                     |
 |                                                 |
 |       in all publications arising from          |
 |              your use of CASTEP                 |
 |                                                 |
 +-------------------------------------------------+
 |                                                 |
 |              http://www.castep.org              |
 |                                                 |
 +-------------------------------------------------+



 Compiled for linux_x86_64_gfortran9.0-XT on Wed, 14 Oct 2020 17:14:04 +0100
 from code version Version unavailable
 Compiler: GNU Fortran 9.3.0; Optimisation: fast
 MATHLIBS: LibSci (LAPACK version 3.6.1)
 FFT Lib : fftw3 version commercial-fftw-3.3.8-sse2
 Fundamental constants values: CODATA 2014

 Run started: Sat, 07 Nov 2020 12:44:07 +0000

 Pseudo atomic calculation performed for O 2s2 2p4

 Converged in 13 iterations to a total energy of -430.9847 eV

 Pseudo atomic calculation performed for Al 3s2 3p1

 Converged in 14 iterations to a total energy of -53.3906 eV
 Calculation parallelised over 256 processes.
 Data is distributed by G-vector(128-way) and k-point(2-way)

 ************************************ Title ************************************
 3x3 sapphire surface benchmark (v1.1)

 ***************************** General Parameters ******************************
  
 output verbosity                               : normal  (1)
 write checkpoint data to                       : al3x3.check
 type of calculation                            : single point energy
 stress calculation                             : off
 density difference calculation                 : off
 electron localisation func (ELF) calculation   : off
 Hirshfeld analysis                             : off
 unlimited duration calculation
 timing information                             : on
 memory usage estimate                          : on
 write extra output files                       : on
 write final potential to formatted file        : off
 write final density to formatted file          : off
 write BibTeX reference list                    : on
 write OTFG pseudopotential files               : on
 write electrostatic potential file             : on
 write bands file                               : on
 checkpoint writing                             : both castep_bin and check files
  
 output         length unit                     : A
 output           mass unit                     : amu
 output           time unit                     : ps
 output         charge unit                     : e
 output           spin unit                     : hbar/2
 output         energy unit                     : eV
 output          force unit                     : eV/A
 output       velocity unit                     : A/ps
 output       pressure unit                     : GPa
 output     inv_length unit                     : 1/A
 output      frequency unit                     : cm-1
 output force constant unit                     : eV/A**2
 output         volume unit                     : A**3
 output   IR intensity unit                     : (D/A)**2/amu
 output         dipole unit                     : D
 output         efield unit                     : eV/A/e
 output        entropy unit                     : J/mol/K
  
 wavefunctions paging                           : none
 random number generator seed                   :          1
 data distribution                              : optimal for this architecture
 optimization strategy                          : maximize speed(+++)

 *********************** Exchange-Correlation Parameters ***********************
  
 using functional                               : Perdew Wang (1991)
 relativistic treatment                         : Koelling-Harmon
 DFT+D: Semi-empirical dispersion correction    : off

 ************************* Pseudopotential Parameters **************************
  
 pseudopotential representation                 : reciprocal space
 <beta|phi> representation                      : reciprocal space
 spin-orbit coupling                            : off

 **************************** Basis Set Parameters *****************************
  
 plane wave basis set cut-off                   :   400.0000   eV
 size of standard grid                          :     1.7500
 size of   fine   gmax                          :    17.9311   1/A
 finite basis set correction                    : none

 **************************** Electronic Parameters ****************************
  
 number of  electrons                           :  1296.    
 net charge of system                           :  0.000    
 treating system as non-spin-polarized
 number of bands                                :        768

 ********************* Electronic Minimization Parameters **********************
  
 Method: Treating system as metallic with density mixing treatment of electrons,
         and number of  SD  steps               :          1
         and number of  CG  steps               :          4
  
 total energy / atom convergence tol.           : 0.1500E-01   eV
 eigen-energy convergence tolerance             : 0.1000E-05   eV
 max force / atom convergence tol.              : ignored
 convergence tolerance window                   :          3   cycles
 max. number of SCF cycles                      :         40
 smearing scheme                                : Gaussian
 smearing width                                 : 0.1000       eV
 Fermi energy convergence tolerance             : 0.2721E-13   eV
 periodic dipole correction                     : NONE

 ************************** Density Mixing Parameters **************************
  
 density-mixing scheme                          : Pulay
 max. length of mixing history                  :         20
 charge density mixing amplitude                : 0.8000    
 cut-off energy for mixing                      :  400.0       eV

 *******************************************************************************
  

                           -------------------------------
                                      Unit Cell
                           -------------------------------
        Real Lattice(A)                      Reciprocal Lattice(1/A)
    12.3642447    -7.1385000     0.0000000        0.508173808   0.000000000   0.000000000
     0.0000000    14.2770000     0.0000000        0.254086904   0.440091427   0.000000000
     0.0000000     0.0000000    27.5000000        0.000000000   0.000000000   0.228479466

                       Lattice parameters(A)       Cell Angles
                    a =     14.277000          alpha =   90.000000
                    b =     14.277000          beta  =   90.000000
                    c =     27.500000          gamma =  120.000000

                       Current cell volume =          4854.418839       A**3
                                   density =             1.134206   AMU/A**3
                                           =             1.883393     g/cm^3

                           -------------------------------
                                     Cell Contents
                           -------------------------------
                         Total number of ions in cell =  270
                      Total number of species in cell =    2
                        Max number of any one species =  162

            xxxxxxxxxxxxxxxxxxxxxxxxxxxxxxxxxxxxxxxxxxxxxxxxxxxxxxxxxxxx
            x  Element    Atom        Fractional coordinates of atoms  x
            x            Number           u          v          w      x
            x----------------------------------------------------------x
            x  O            1         0.102000   0.000000   0.645700   x 
            x  O            2         0.000000   0.102000   0.645700   x 
            x  O            3         0.231333   0.231333   0.645700   x 
            x  O            4         0.009111   0.222222   0.724433   x 
            x  O            5         0.111111   0.120222   0.724433   x 
            x  O            6         0.213111   0.324222   0.724433   x 
            x  O            7         0.120222   0.111111   0.566967   x 
            x  O            8         0.222222   0.009111   0.566967   x 
            x  O            9         0.324222   0.213111   0.566967   x 
            x  O           10         0.324222   0.111111   0.803167   x 
            x  O           11         0.222222   0.213111   0.803167   x 
            x  O           12         0.120222   0.009111   0.803167   x 
            x  O           13         0.213111   0.222222   0.960633   x 
            x  O           14         0.111111   0.324222   0.960633   x 
            x  O           15         0.009111   0.120222   0.960633   x 
            x  O           16         0.231333   0.000000   0.881900   x 
            x  O           17         0.000000   0.231333   0.881900   x 
            x  O           18         0.102000   0.102000   0.881900   x 
            x  O           19         0.102000   0.333333   0.645700   x 
            x  O           20         0.000000   0.435333   0.645700   x 
            x  O           21         0.231333   0.564667   0.645700   x 
            x  O           22         0.009111   0.555556   0.724433   x 
            x  O           23         0.111111   0.453556   0.724433   x 
            x  O           24         0.213111   0.657556   0.724433   x 
            x  O           25         0.120222   0.444444   0.566967   x 
            x  O           26         0.222222   0.342444   0.566967   x 
            x  O           27         0.324222   0.546444   0.566967   x 
            x  O           28         0.324222   0.444444   0.803167   x 
            x  O           29         0.222222   0.546444   0.803167   x 
            x  O           30         0.120222   0.342444   0.803167   x 
            x  O           31         0.213111   0.555556   0.960633   x 
            x  O           32         0.111111   0.657556   0.960633   x 
            x  O           33         0.009111   0.453556   0.960633   x 
            x  O           34         0.231333   0.333333   0.881900   x 
            x  O           35         0.000000   0.564667   0.881900   x 
            x  O           36         0.102000   0.435333   0.881900   x 
            x  O           37         0.102000   0.666667   0.645700   x 
            x  O           38         0.000000   0.768667   0.645700   x 
            x  O           39         0.231333   0.898000   0.645700   x 
            x  O           40         0.009111   0.888889   0.724433   x 
            x  O           41         0.111111   0.786889   0.724433   x 
            x  O           42         0.213111   0.990889   0.724433   x 
            x  O           43         0.120222   0.777778   0.566967   x 
            x  O           44         0.222222   0.675778   0.566967   x 
            x  O           45         0.324222   0.879778   0.566967   x 
            x  O           46         0.324222   0.777778   0.803167   x 
            x  O           47         0.222222   0.879778   0.803167   x 
            x  O           48         0.120222   0.675778   0.803167   x 
            x  O           49         0.213111   0.888889   0.960633   x 
            x  O           50         0.111111   0.990889   0.960633   x 
            x  O           51         0.009111   0.786889   0.960633   x 
            x  O           52         0.231333   0.666667   0.881900   x 
            x  O           53         0.000000   0.898000   0.881900   x 
            x  O           54         0.102000   0.768667   0.881900   x 
            x  O           55         0.435333   0.000000   0.645700   x 
            x  O           56         0.333333   0.102000   0.645700   x 
            x  O           57         0.564667   0.231333   0.645700   x 
            x  O           58         0.342444   0.222222   0.724433   x 
            x  O           59         0.444444   0.120222   0.724433   x 
            x  O           60         0.546444   0.324222   0.724433   x 
            x  O           61         0.453556   0.111111   0.566967   x 
            x  O           62         0.555556   0.009111   0.566967   x 
            x  O           63         0.657556   0.213111   0.566967   x 
            x  O           64         0.657556   0.111111   0.803167   x 
            x  O           65         0.555556   0.213111   0.803167   x 
            x  O           66         0.453556   0.009111   0.803167   x 
            x  O           67         0.546444   0.222222   0.960633   x 
            x  O           68         0.444444   0.324222   0.960633   x 
            x  O           69         0.342444   0.120222   0.960633   x 
            x  O           70         0.564667   0.000000   0.881900   x 
            x  O           71         0.333333   0.231333   0.881900   x 
            x  O           72         0.435333   0.102000   0.881900   x 
            x  O           73         0.435333   0.333333   0.645700   x 
            x  O           74         0.333333   0.435333   0.645700   x 
            x  O           75         0.564667   0.564667   0.645700   x 
            x  O           76         0.342444   0.555556   0.724433   x 
            x  O           77         0.444444   0.453556   0.724433   x 
            x  O           78         0.546444   0.657556   0.724433   x 
            x  O           79         0.453556   0.444444   0.566967   x 
            x  O           80         0.555556   0.342444   0.566967   x 
            x  O           81         0.657556   0.546444   0.566967   x 
            x  O           82         0.657556   0.444444   0.803167   x 
            x  O           83         0.555556   0.546444   0.803167   x 
            x  O           84         0.453556   0.342444   0.803167   x 
            x  O           85         0.546444   0.555556   0.960633   x 
            x  O           86         0.444444   0.657556   0.960633   x 
            x  O           87         0.342444   0.453556   0.960633   x 
            x  O           88         0.564667   0.333333   0.881900   x 
            x  O           89         0.333333   0.564667   0.881900   x 
            x  O           90         0.435333   0.435333   0.881900   x 
            x  O           91         0.435333   0.666667   0.645700   x 
            x  O           92         0.333333   0.768667   0.645700   x 
            x  O           93         0.564667   0.898000   0.645700   x 
            x  O           94         0.342444   0.888889   0.724433   x 
            x  O           95         0.444444   0.786889   0.724433   x 
            x  O           96         0.546444   0.990889   0.724433   x 
            x  O           97         0.453556   0.777778   0.566967   x 
            x  O           98         0.555556   0.675778   0.566967   x 
            x  O           99         0.657556   0.879778   0.566967   x 
            x  O          100         0.657556   0.777778   0.803167   x 
            x  O          101         0.555556   0.879778   0.803167   x 
            x  O          102         0.453556   0.675778   0.803167   x 
            x  O          103         0.546444   0.888889   0.960633   x 
            x  O          104         0.444444   0.990889   0.960633   x 
            x  O          105         0.342444   0.786889   0.960633   x 
            x  O          106         0.564667   0.666667   0.881900   x 
            x  O          107         0.333333   0.898000   0.881900   x 
            x  O          108         0.435333   0.768667   0.881900   x 
            x  O          109         0.768667   0.000000   0.645700   x 
            x  O          110         0.666667   0.102000   0.645700   x 
            x  O          111         0.898000   0.231333   0.645700   x 
            x  O          112         0.675778   0.222222   0.724433   x 
            x  O          113         0.777778   0.120222   0.724433   x 
            x  O          114         0.879778   0.324222   0.724433   x 
            x  O          115         0.786889   0.111111   0.566967   x 
            x  O          116         0.888889   0.009111   0.566967   x 
            x  O          117         0.990889   0.213111   0.566967   x 
            x  O          118         0.990889   0.111111   0.803167   x 
            x  O          119         0.888889   0.213111   0.803167   x 
            x  O          120         0.786889   0.009111   0.803167   x 
            x  O          121         0.879778   0.222222   0.960633   x 
            x  O          122         0.777778   0.324222   0.960633   x 
            x  O          123         0.675778   0.120222   0.960633   x 
            x  O          124         0.898000   0.000000   0.881900   x 
            x  O          125         0.666667   0.231333   0.881900   x 
            x  O          126         0.768667   0.102000   0.881900   x 
            x  O          127         0.768667   0.333333   0.645700   x 
            x  O          128         0.666667   0.435333   0.645700   x 
            x  O          129         0.898000   0.564667   0.645700   x 
            x  O          130         0.675778   0.555556   0.724433   x 
            x  O          131         0.777778   0.453556   0.724433   x 
            x  O          132         0.879778   0.657556   0.724433   x 
            x  O          133         0.786889   0.444444   0.566967   x 
            x  O          134         0.888889   0.342444   0.566967   x 
            x  O          135         0.990889   0.546444   0.566967   x 
            x  O          136         0.990889   0.444444   0.803167   x 
            x  O          137         0.888889   0.546444   0.803167   x 
            x  O          138         0.786889   0.342444   0.803167   x 
            x  O          139         0.879778   0.555556   0.960633   x 
            x  O          140         0.777778   0.657556   0.960633   x 
            x  O          141         0.675778   0.453556   0.960633   x 
            x  O          142         0.898000   0.333333   0.881900   x 
            x  O          143         0.666667   0.564667   0.881900   x 
            x  O          144         0.768667   0.435333   0.881900   x 
            x  O          145         0.768667   0.666667   0.645700   x 
            x  O          146         0.666667   0.768667   0.645700   x 
            x  O          147         0.898000   0.898000   0.645700   x 
            x  O          148         0.675778   0.888889   0.724433   x 
            x  O          149         0.777778   0.786889   0.724433   x 
            x  O          150         0.879778   0.990889   0.724433   x 
            x  O          151         0.786889   0.777778   0.566967   x 
            x  O          152         0.888889   0.675778   0.566967   x 
            x  O          153         0.990889   0.879778   0.566967   x 
            x  O          154         0.990889   0.777778   0.803167   x 
            x  O          155         0.888889   0.879778   0.803167   x 
            x  O          156         0.786889   0.675778   0.803167   x 
            x  O          157         0.879778   0.888889   0.960633   x 
            x  O          158         0.777778   0.990889   0.960633   x 
            x  O          159         0.675778   0.786889   0.960633   x 
            x  O          160         0.898000   0.666667   0.881900   x 
            x  O          161         0.666667   0.898000   0.881900   x 
            x  O          162         0.768667   0.768667   0.881900   x 
            x  Al           1         0.000000   0.000000   0.693885   x 
            x  Al           2         0.000000   0.000000   0.597515   x 
            x  Al           3         0.222222   0.111111   0.615151   x 
            x  Al           4         0.111111   0.222222   0.676249   x 
            x  Al           5         0.222222   0.111111   0.754982   x 
            x  Al           6         0.111111   0.222222   0.772618   x 
            x  Al           7         0.222222   0.111111   0.991182   x 
            x  Al           8         0.111111   0.222222   0.536418   x 
            x  Al           9         0.000000   0.000000   0.833715   x 
            x  Al          10         0.222222   0.111111   0.851351   x 
            x  Al          11         0.000000   0.000000   0.930085   x 
            x  Al          12         0.111111   0.222222   0.912449   x 
            x  Al          13         0.000000   0.333333   0.693885   x 
            x  Al          14         0.000000   0.333333   0.597515   x 
            x  Al          15         0.222222   0.444444   0.615151   x 
            x  Al          16         0.111111   0.555556   0.676249   x 
            x  Al          17         0.222222   0.444444   0.754982   x 
            x  Al          18         0.111111   0.555556   0.772618   x 
            x  Al          19         0.222222   0.444444   0.991182   x 
            x  Al          20         0.111111   0.555556   0.536418   x 
            x  Al          21         0.000000   0.333333   0.833715   x 
            x  Al          22         0.222222   0.444444   0.851351   x 
            x  Al          23         0.000000   0.333333   0.930085   x 
            x  Al          24         0.111111   0.555556   0.912449   x 
            x  Al          25         0.000000   0.666667   0.693885   x 
            x  Al          26         0.000000   0.666667   0.597515   x 
            x  Al          27         0.222222   0.777778   0.615151   x 
            x  Al          28         0.111111   0.888889   0.676249   x 
            x  Al          29         0.222222   0.777778   0.754982   x 
            x  Al          30         0.111111   0.888889   0.772618   x 
            x  Al          31         0.222222   0.777778   0.991182   x 
            x  Al          32         0.111111   0.888889   0.536418   x 
            x  Al          33         0.000000   0.666667   0.833715   x 
            x  Al          34         0.222222   0.777778   0.851351   x 
            x  Al          35         0.000000   0.666667   0.930085   x 
            x  Al          36         0.111111   0.888889   0.912449   x 
            x  Al          37         0.333333   0.000000   0.693885   x 
            x  Al          38         0.333333   0.000000   0.597515   x 
            x  Al          39         0.555556   0.111111   0.615151   x 
            x  Al          40         0.444444   0.222222   0.676249   x 
            x  Al          41         0.555556   0.111111   0.754982   x 
            x  Al          42         0.444444   0.222222   0.772618   x 
            x  Al          43         0.555556   0.111111   0.991182   x 
            x  Al          44         0.444444   0.222222   0.536418   x 
            x  Al          45         0.333333   0.000000   0.833715   x 
            x  Al          46         0.555556   0.111111   0.851351   x 
            x  Al          47         0.333333   0.000000   0.930085   x 
            x  Al          48         0.444444   0.222222   0.912449   x 
            x  Al          49         0.333333   0.333333   0.693885   x 
            x  Al          50         0.333333   0.333333   0.597515   x 
            x  Al          51         0.555556   0.444444   0.615151   x 
            x  Al          52         0.444444   0.555556   0.676249   x 
            x  Al          53         0.555556   0.444444   0.754982   x 
            x  Al          54         0.444444   0.555556   0.772618   x 
            x  Al          55         0.555556   0.444444   0.991182   x 
            x  Al          56         0.444444   0.555556   0.536418   x 
            x  Al          57         0.333333   0.333333   0.833715   x 
            x  Al          58         0.555556   0.444444   0.851351   x 
            x  Al          59         0.333333   0.333333   0.930085   x 
            x  Al          60         0.444444   0.555556   0.912449   x 
            x  Al          61         0.333333   0.666667   0.693885   x 
            x  Al          62         0.333333   0.666667   0.597515   x 
            x  Al          63         0.555556   0.777778   0.615151   x 
            x  Al          64         0.444444   0.888889   0.676249   x 
            x  Al          65         0.555556   0.777778   0.754982   x 
            x  Al          66         0.444444   0.888889   0.772618   x 
            x  Al          67         0.555556   0.777778   0.991182   x 
            x  Al          68         0.444444   0.888889   0.536418   x 
            x  Al          69         0.333333   0.666667   0.833715   x 
            x  Al          70         0.555556   0.777778   0.851351   x 
            x  Al          71         0.333333   0.666667   0.930085   x 
            x  Al          72         0.444444   0.888889   0.912449   x 
            x  Al          73         0.666667   0.000000   0.693885   x 
            x  Al          74         0.666667   0.000000   0.597515   x 
            x  Al          75         0.888889   0.111111   0.615151   x 
            x  Al          76         0.777778   0.222222   0.676249   x 
            x  Al          77         0.888889   0.111111   0.754982   x 
            x  Al          78         0.777778   0.222222   0.772618   x 
            x  Al          79         0.888889   0.111111   0.991182   x 
            x  Al          80         0.777778   0.222222   0.536418   x 
            x  Al          81         0.666667   0.000000   0.833715   x 
            x  Al          82         0.888889   0.111111   0.851351   x 
            x  Al          83         0.666667   0.000000   0.930085   x 
            x  Al          84         0.777778   0.222222   0.912449   x 
            x  Al          85         0.666667   0.333333   0.693885   x 
            x  Al          86         0.666667   0.333333   0.597515   x 
            x  Al          87         0.888889   0.444444   0.615151   x 
            x  Al          88         0.777778   0.555556   0.676249   x 
            x  Al          89         0.888889   0.444444   0.754982   x 
            x  Al          90         0.777778   0.555556   0.772618   x 
            x  Al          91         0.888889   0.444444   0.991182   x 
            x  Al          92         0.777778   0.555556   0.536418   x 
            x  Al          93         0.666667   0.333333   0.833715   x 
            x  Al          94         0.888889   0.444444   0.851351   x 
            x  Al          95         0.666667   0.333333   0.930085   x 
            x  Al          96         0.777778   0.555556   0.912449   x 
            x  Al          97         0.666667   0.666667   0.693885   x 
            x  Al          98         0.666667   0.666667   0.597515   x 
            x  Al          99         0.888889   0.777778   0.615151   x 
            x  Al         100         0.777778   0.888889   0.676249   x 
            x  Al         101         0.888889   0.777778   0.754982   x 
            x  Al         102         0.777778   0.888889   0.772618   x 
            x  Al         103         0.888889   0.777778   0.991182   x 
            x  Al         104         0.777778   0.888889   0.536418   x 
            x  Al         105         0.666667   0.666667   0.833715   x 
            x  Al         106         0.888889   0.777778   0.851351   x 
            x  Al         107         0.666667   0.666667   0.930085   x 
            x  Al         108         0.777778   0.888889   0.912449   x 
            xxxxxxxxxxxxxxxxxxxxxxxxxxxxxxxxxxxxxxxxxxxxxxxxxxxxxxxxxxxx


                         No user defined ionic velocities

                           -------------------------------
                                   Details of Species
                           -------------------------------

                               Mass of species in AMU
                                    O   15.9994000
                                    Al   26.9815400

                          Electric Quadrupole Moment (Barn)
                                    O   -0.0255800 Isotope 17
                                    Al    0.1466000 Isotope 27

                          Files used for pseudopotentials:
                                    O O_00.usp
                                    Al Al_00.usp

                           -------------------------------
                              k-Points For BZ Sampling
                           -------------------------------
                       MP grid size for SCF calculation is  2  2  1
                            with an offset of   0.000  0.000  0.000
                       Number of kpoints used =             2

                           -------------------------------
                               Symmetry and Constraints
                           -------------------------------

                      Cell is a supercell containing 9 primitive cells
                      Maximum deviation from symmetry =  0.00000         ANG

                      Number of symmetry operations   =           1
                      Number of ionic constraints     =           3
                      Point group of crystal =     1: C1, 1, 1
                      Space group of crystal =   147: P-3, -P 3

             Set iprint > 1 for details on symmetry rotations/translations

                         Centre of mass is constrained
             Set iprint > 1 for details of linear ionic constraints

                         Number of cell constraints= 0
                         Cell constraints are:  1 2 3 4 5 6

                         External pressure/stress (GPa)
                          0.00000   0.00000   0.00000
                                    0.00000   0.00000
                                              0.00000
  
+---------------- MEMORY AND SCRATCH DISK ESTIMATES PER PROCESS --------------+
|                                                     Memory          Disk    |
| Baseline code, static data and system overhead      582.0 MB         0.0 MB |
| BLAS internal memory storage                          0.0 MB         0.0 MB |
| Model and support data                               60.6 MB         0.0 MB |
| Electronic energy minimisation requirements          45.2 MB         0.0 MB |
| Force calculation requirements                        1.7 MB         0.0 MB |
|                                               ----------------------------- |
| Approx. total storage required per process          687.8 MB         0.0 MB |
|                                                                             |
| Requirements will fluctuate during execution and may exceed these estimates |
+-----------------------------------------------------------------------------+
Calculating total energy with cut-off of  400.000 eV.
------------------------------------------------------------------------ <-- SCF
SCF loop      Energy           Fermi           Energy gain       Timer   <-- SCF
                               energy          per atom          (sec)   <-- SCF
------------------------------------------------------------------------ <-- SCF
Initial  -5.93903962E+004  0.00000000E+000                         4.84  <-- SCF
      1  -7.24025078E+004  4.04952038E+000   4.81930060E+001      17.99  <-- SCF
      2  -7.78252467E+004  1.95718735E+000   2.00842181E+001      27.54  <-- SCF
      3  -7.79864690E+004  1.80210546E+000   5.97119548E-001      37.07  <-- SCF
      4  -7.78412511E+004  1.95866797E+000  -5.37843840E-001      48.12  <-- SCF
      5  -7.77211110E+004  1.34858550E+000  -4.44963492E-001      58.89  <-- SCF
      6  -7.77152160E+004  1.12181373E+000  -2.18332198E-002      70.60  <-- SCF
      7  -7.77129479E+004  1.05270612E+000  -8.40047628E-003      81.28  <-- SCF
      8  -7.77104474E+004  1.02757566E+000  -9.26117241E-003      92.34  <-- SCF
      9  -7.77084302E+004  9.96440502E-001  -7.47088452E-003     102.84  <-- SCF
     10  -7.77059868E+004  1.11158438E+000  -9.04964606E-003     113.53  <-- SCF
     11  -7.77052160E+004  1.16142631E+000  -2.85493552E-003     123.64  <-- SCF
------------------------------------------------------------------------ <-- SCF
 
Final energy, E             =  -77705.21598074     eV
Final free energy (E-TS)    =  -77705.21598075     eV
(energies not corrected for finite basis set)
 
NB est. 0K energy (E-0.5TS)      =  -77705.21598074     eV
 

Writing analysis data to al3x3.castep_bin

Writing model to al3x3.check

 ************************** Forces **************************
 *                                                          *
 *               Cartesian components (eV/A)                *
 * -------------------------------------------------------- *
 *                         x            y            z      *
 *                                                          *
 * O               1      0.16546      0.02416      0.81294 *
 * O               2     -0.09616      0.12867      0.80709 *
 * O               3     -0.06588     -0.14994      0.81406 *
 * O               4     -0.10281      0.02695      0.37080 *
 * O               5      0.02296     -0.10533      0.37258 *
 * O               6      0.08183      0.07481      0.36653 *
 * O               7     -1.64065      1.74452     -1.02151 *
 * O               8     -0.69944     -2.30209     -1.02675 *
 * O               9      2.35342      0.54882     -1.03858 *
 * O              10      0.08666     -0.01690     -0.37847 *
 * O              11     -0.02365      0.08637     -0.38175 *
 * O              12     -0.06099     -0.06281     -0.37824 *
 * O              13      1.64860     -1.77868      0.96839 *
 * O              14      0.68951      2.28569      0.96500 *
 * O              15     -2.33669     -0.53356      0.96999 *
 * O              16     -0.17547     -0.00725     -0.76416 *
 * O              17      0.09752     -0.14298     -0.75951 *
 * O              18      0.07425      0.15725     -0.76225 *
 * O              19      0.16803      0.01920      0.82015 *
 * O              20     -0.10362      0.12991      0.81354 *
 * O              21     -0.06580     -0.14472      0.81601 *
 * O              22     -0.10143      0.02835      0.36943 *
 * O              23      0.02263     -0.10179      0.36864 *
 * O              24      0.07665      0.07523      0.36866 *
 * O              25     -1.66701      1.77075     -1.03492 *
 * O              26     -0.68684     -2.29542     -1.03275 *
 * O              27      2.35749      0.55462     -1.04283 *
 * O              28      0.08133     -0.01980     -0.37850 *
 * O              29     -0.02038      0.07898     -0.37860 *
 * O              30     -0.06232     -0.06315     -0.37473 *
 * O              31      1.66467     -1.78624      0.98469 *
 * O              32      0.69482      2.29819      0.97034 *
 * O              33     -2.34814     -0.54040      0.97956 *
 * O              34     -0.17813     -0.00834     -0.76088 *
 * O              35      0.09778     -0.14689     -0.76193 *
 * O              36      0.07469      0.14838     -0.75826 *
 * O              37      0.16990      0.01744      0.81425 *
 * O              38     -0.10322      0.13320      0.81620 *
 * O              39     -0.06402     -0.14920      0.80926 *
 * O              40     -0.10523      0.02895      0.36732 *
 * O              41      0.02687     -0.10466      0.37168 *
 * O              42      0.07885      0.07157      0.36777 *
 * O              43     -1.65142      1.75208     -1.02511 *
 * O              44     -0.67866     -2.26635     -1.02038 *
 * O              45      2.32009      0.54255     -1.03354 *
 * O              46      0.08567     -0.01931     -0.37815 *
 * O              47     -0.02418      0.08385     -0.37607 *
 * O              48     -0.06439     -0.07142     -0.37582 *
 * O              49      1.65950     -1.78526      0.97844 *
 * O              50      0.71527      2.33420      0.97835 *
 * O              51     -2.35868     -0.55374      0.98680 *
 * O              52     -0.18085     -0.00531     -0.76635 *
 * O              53      0.08977     -0.14089     -0.75906 *
 * O              54      0.07611      0.15385     -0.75937 *
 * O              55      0.16552      0.02106      0.81218 *
 * O              56     -0.09856      0.13065      0.81277 *
 * O              57     -0.06654     -0.14702      0.81294 *
 * O              58     -0.10475      0.02844      0.36868 *
 * O              59      0.01967     -0.10042      0.36962 *
 * O              60      0.07989      0.07861      0.37000 *
 * O              61     -1.65968      1.75848     -1.03018 *
 * O              62     -0.68769     -2.30129     -1.03344 *
 * O              63      2.35685      0.55275     -1.03609 *
 * O              64      0.08668     -0.02116     -0.37511 *
 * O              65     -0.02570      0.08176     -0.37275 *
 * O              66     -0.05911     -0.06669     -0.37544 *
 * O              67      1.65481     -1.78908      0.96737 *
 * O              68      0.71009      2.32141      0.98285 *
 * O              69     -2.31933     -0.54483      0.96963 *
 * O              70     -0.17787     -0.00847     -0.76529 *
 * O              71      0.09221     -0.14549     -0.76050 *
 * O              72      0.06899      0.15308     -0.75638 *
 * O              73      0.16702      0.01837      0.81739 *
 * O              74     -0.10637      0.12860      0.81480 *
 * O              75     -0.06197     -0.14239      0.80796 *
 * O              76     -0.10208      0.02283      0.37012 *
 * O              77      0.02311     -0.09999      0.36896 *
 * O              78      0.08211      0.07316      0.36810 *
 * O              79     -1.66020      1.76919     -1.03916 *
 * O              80     -0.67806     -2.27901     -1.02993 *
 * O              81      2.33916      0.54795     -1.03526 *
 * O              82      0.08936     -0.02147     -0.37745 *
 * O              83     -0.02639      0.08276     -0.37780 *
 * O              84     -0.06329     -0.06518     -0.36829 *
 * O              85      1.65560     -1.78969      0.96722 *
 * O              86      0.70254      2.30598      0.97685 *
 * O              87     -2.34465     -0.54666      0.96698 *
 * O              88     -0.17293     -0.00848     -0.76817 *
 * O              89      0.09630     -0.14464     -0.75764 *
 * O              90      0.07138      0.15107     -0.75894 *
 * O              91      0.16735      0.01663      0.82123 *
 * O              92     -0.10911      0.13678      0.81157 *
 * O              93     -0.06170     -0.15214      0.81698 *
 * O              94     -0.10212      0.02481      0.36797 *
 * O              95      0.02111     -0.10135      0.36935 *
 * O              96      0.07746      0.07536      0.36864 *
 * O              97     -1.66988      1.78799     -1.03528 *
 * O              98     -0.66620     -2.27077     -1.03039 *
 * O              99      2.32370      0.54669     -1.03516 *
 * O             100      0.08858     -0.01767     -0.37297 *
 * O             101     -0.02631      0.08071     -0.38044 *
 * O             102     -0.06074     -0.06512     -0.37196 *
 * O             103      1.66071     -1.78210      0.97030 *
 * O             104      0.70311      2.31046      0.97547 *
 * O             105     -2.37508     -0.55130      0.98659 *
 * O             106     -0.17525     -0.00607     -0.76032 *
 * O             107      0.09430     -0.14549     -0.76220 *
 * O             108      0.07652      0.15240     -0.76702 *
 * O             109      0.16770      0.02197      0.81295 *
 * O             110     -0.10397      0.12921      0.81519 *
 * O             111     -0.06285     -0.15522      0.81006 *
 * O             112     -0.10382      0.02365      0.37140 *
 * O             113      0.02148     -0.10270      0.37550 *
 * O             114      0.08026      0.07652      0.36248 *
 * O             115     -1.65021      1.75632     -1.02690 *
 * O             116     -0.70342     -2.31655     -1.03751 *
 * O             117      2.33268      0.55807     -1.03652 *
 * O             118      0.08556     -0.01931     -0.37638 *
 * O             119     -0.02034      0.07755     -0.38030 *
 * O             120     -0.06360     -0.06058     -0.37443 *
 * O             121      1.66643     -1.80035      0.97018 *
 * O             122      0.68999      2.29754      0.96803 *
 * O             123     -2.34524     -0.53677      0.97302 *
 * O             124     -0.17507     -0.01129     -0.75964 *
 * O             125      0.09898     -0.14420     -0.75595 *
 * O             126      0.07415      0.14959     -0.75966 *
 * O             127      0.16525      0.02368      0.81186 *
 * O             128     -0.10479      0.13126      0.80929 *
 * O             129     -0.06465     -0.15763      0.81518 *
 * O             130     -0.10227      0.02545      0.37047 *
 * O             131      0.01998     -0.09627      0.37630 *
 * O             132      0.08079      0.07477      0.36651 *
 * O             133     -1.64940      1.74972     -1.02330 *
 * O             134     -0.69023     -2.29459     -1.03307 *
 * O             135      2.34930      0.55350     -1.02752 *
 * O             136      0.08386     -0.01598     -0.37672 *
 * O             137     -0.02294      0.08197     -0.37920 *
 * O             138     -0.06341     -0.06418     -0.37632 *
 * O             139      1.65271     -1.78630      0.96586 *
 * O             140      0.70847      2.31134      0.97245 *
 * O             141     -2.32936     -0.54124      0.97518 *
 * O             142     -0.17634     -0.00981     -0.76434 *
 * O             143      0.09137     -0.14797     -0.75737 *
 * O             144      0.07406      0.15113     -0.75596 *
 * O             145      0.16638      0.01935      0.82375 *
 * O             146     -0.10430      0.12987      0.81009 *
 * O             147     -0.06201     -0.15279      0.81788 *
 * O             148     -0.10736      0.02817      0.36977 *
 * O             149      0.01937     -0.10353      0.37244 *
 * O             150      0.08096      0.07919      0.36409 *
 * O             151     -1.67022      1.77885     -1.03871 *
 * O             152     -0.69352     -2.30889     -1.03448 *
 * O             153      2.34004      0.55637     -1.03928 *
 * O             154      0.08674     -0.02108     -0.37915 *
 * O             155     -0.02409      0.08379     -0.37762 *
 * O             156     -0.06030     -0.06568     -0.37517 *
 * O             157      1.63441     -1.76513      0.96626 *
 * O             158      0.70166      2.29769      0.97129 *
 * O             159     -2.33831     -0.54053      0.97307 *
 * O             160     -0.17590     -0.01411     -0.76733 *
 * O             161      0.09602     -0.14378     -0.75459 *
 * O             162      0.07671      0.15656     -0.75454 *
 * Al              1     -0.00078     -0.00043     -0.04369 *
 * Al              2      0.00926     -0.00399     -0.87355 *
 * Al              3     -0.00637     -0.00298     -1.98218 *
 * Al              4     -0.00020     -0.00010     -0.25108 *
 * Al              5     -0.00120     -0.00024     -0.08070 *
 * Al              6      0.00003     -0.00014      0.08247 *
 * Al              7      0.03002     -0.01215     -7.29639 *
 * Al              8      0.00646     -0.00218      7.29946 *
 * Al              9     -0.00076     -0.00054      0.05061 *
 * Al             10     -0.00071      0.00022      0.27267 *
 * Al             11     -0.00823      0.01285      0.87455 *
 * Al             12     -0.00885      0.00687      1.99500 *
 * Al             13     -0.00049      0.00005     -0.04377 *
 * Al             14     -0.01552     -0.00249     -0.87068 *
 * Al             15      0.00087     -0.01006     -1.97477 *
 * Al             16     -0.00062      0.00001     -0.25146 *
 * Al             17     -0.00111     -0.00029     -0.08042 *
 * Al             18     -0.00080     -0.00017      0.08222 *
 * Al             19     -0.00509     -0.03543     -7.29645 *
 * Al             20      0.02396      0.02835      7.29835 *
 * Al             21     -0.00072     -0.00021      0.04990 *
 * Al             22     -0.00050     -0.00007      0.27267 *
 * Al             23      0.02522      0.00225      0.87336 *
 * Al             24     -0.00862      0.00815      1.98594 *
 * Al             25     -0.00077     -0.00045     -0.04390 *
 * Al             26     -0.00271      0.00076     -0.86818 *
 * Al             27      0.00439     -0.00935     -1.99067 *
 * Al             28     -0.00035      0.00006     -0.25129 *
 * Al             29     -0.00115     -0.00040     -0.08057 *
 * Al             30     -0.00018     -0.00020      0.08239 *
 * Al             31     -0.02118     -0.01098     -7.29790 *
 * Al             32     -0.00018      0.00968      7.29821 *
 * Al             33     -0.00083     -0.00034      0.05065 *
 * Al             34     -0.00053      0.00028      0.27314 *
 * Al             35      0.01159     -0.00273      0.87343 *
 * Al             36     -0.00366     -0.00221      1.97997 *
 * Al             37     -0.00045      0.00035     -0.04412 *
 * Al             38     -0.00904     -0.00690     -0.87351 *
 * Al             39     -0.00145     -0.00690     -1.97769 *
 * Al             40     -0.00085     -0.00016     -0.25208 *
 * Al             41     -0.00129     -0.00044     -0.08077 *
 * Al             42     -0.00045     -0.00034      0.08224 *
 * Al             43      0.00410     -0.01786     -7.29639 *
 * Al             44      0.02573      0.01542      7.29844 *
 * Al             45     -0.00070     -0.00057      0.05013 *
 * Al             46     -0.00036      0.00008      0.27287 *
 * Al             47      0.00883      0.01632      0.87882 *
 * Al             48     -0.01272     -0.00637      1.98656 *
 * Al             49     -0.00038     -0.00033     -0.04452 *
 * Al             50     -0.01665      0.00590     -0.86546 *
 * Al             51      0.00572     -0.01113     -1.98258 *
 * Al             52     -0.00081     -0.00003     -0.25146 *
 * Al             53     -0.00062     -0.00018     -0.08061 *
 * Al             54     -0.00040     -0.00020      0.08231 *
 * Al             55      0.02393     -0.01478     -7.29675 *
 * Al             56      0.03001      0.02566      7.29862 *
 * Al             57     -0.00065     -0.00042      0.05014 *
 * Al             58     -0.00048     -0.00006      0.27288 *
 * Al             59     -0.00118      0.01578      0.87015 *
 * Al             60     -0.01039      0.00217      1.98744 *
 * Al             61     -0.00055     -0.00024     -0.04389 *
 * Al             62     -0.03206      0.01001     -0.86646 *
 * Al             63      0.01268     -0.01222     -1.98330 *
 * Al             64      0.00010     -0.00003     -0.25147 *
 * Al             65     -0.00104     -0.00031     -0.08071 *
 * Al             66     -0.00010     -0.00023      0.08232 *
 * Al             67      0.00360     -0.01448     -7.29741 *
 * Al             68     -0.00408      0.03647      7.29786 *
 * Al             69     -0.00072     -0.00039      0.05038 *
 * Al             70     -0.00022     -0.00019      0.27280 *
 * Al             71      0.01301     -0.00398      0.86429 *
 * Al             72     -0.00020      0.00619      1.98180 *
 * Al             73     -0.00149     -0.00029     -0.04385 *
 * Al             74     -0.00710     -0.00615     -0.87802 *
 * Al             75      0.00071      0.00306     -1.97929 *
 * Al             76     -0.00102      0.00046     -0.25137 *
 * Al             77     -0.00124     -0.00045     -0.08055 *
 * Al             78     -0.00027      0.00033      0.08279 *
 * Al             79      0.00570     -0.03329     -7.29560 *
 * Al             80      0.01587      0.00295      7.29848 *
 * Al             81     -0.00081     -0.00046      0.05017 *
 * Al             82     -0.00094     -0.00022      0.27293 *
 * Al             83      0.01047      0.00515      0.87591 *
 * Al             84     -0.01200      0.00939      1.98706 *
 * Al             85     -0.00056     -0.00027     -0.04383 *
 * Al             86     -0.00974      0.01498     -0.87595 *
 * Al             87     -0.00294     -0.00439     -1.98352 *
 * Al             88     -0.00051     -0.00000     -0.25120 *
 * Al             89     -0.00117     -0.00046     -0.08056 *
 * Al             90     -0.00093     -0.00020      0.08261 *
 * Al             91     -0.01021     -0.01956     -7.29632 *
 * Al             92     -0.00386     -0.00232      7.29874 *
 * Al             93     -0.00050     -0.00027      0.04968 *
 * Al             94     -0.00055     -0.00008      0.27253 *
 * Al             95      0.01620      0.00799      0.87912 *
 * Al             96     -0.00911     -0.00067      1.98860 *
 * Al             97     -0.00080     -0.00027     -0.04371 *
 * Al             98     -0.02463      0.00092     -0.87414 *
 * Al             99      0.00658     -0.00166     -1.97613 *
 * Al            100     -0.00040     -0.00062     -0.25166 *
 * Al            101     -0.00141     -0.00018     -0.08041 *
 * Al            102     -0.00053     -0.00013      0.08256 *
 * Al            103     -0.00222      0.00384     -7.29675 *
 * Al            104     -0.01906      0.01852      7.29852 *
 * Al            105     -0.00048     -0.00059      0.05006 *
 * Al            106     -0.00045     -0.00066      0.27289 *
 * Al            107      0.00856      0.01037      0.87084 *
 * Al            108     -0.00299      0.00157      1.99364 *
 *                                                          *
 ************************************************************

Writing analysis data to al3x3.castep_bin

Writing model to al3x3.check
 
 A BibTeX formatted list of references used in this run has been written to 
 al3x3.bib
 
Initialisation time =      4.08 s
Calculation time    =    133.08 s
Finalisation time   =      8.25 s
Total time          =    145.41 s
Peak Memory Use     = 3863840 kB
  
Overall parallel efficiency rating: Mediocre (58%)                              
  
Data was distributed by:-
G-vector (128-way); efficiency rating: Satisfactory (60%)                       
k-point (2-way); efficiency rating: Excellent (98%)                             
  
Parallel notes:
1) Calculation only took 137.2 s, so efficiency estimates may be inaccurate.    
