 vasp.6.4.1 05Apr23 (build May 30 2023 08:55:05) complex                         
 executed on        HPECrayEX_GCC date 2023.07.18  16:20:36
 running 8192 mpi-ranks, with    1 threads/rank, on   64 nodes
 distrk:  each k-point on 4096 cores,    2 groups
 distr:  one band on NCORE=  32 cores,  128 groups


--------------------------------------------------------------------------------------------------------


 INCAR:
   SYSTEM = CdTe
   ISTART = 0
   ICHARG = 2
   LWAVE = .FALSE.
   LCHARG = .FALSE.
   NCSHMEM = 1
   NBLOCK_FOCK = 8
   LSCAAWARE = .TRUE.
   NELMDL = 5
   NELM = 7
   ALGO = All
   ISIF = 2
   LHFCALC = .TRUE.
   AEXX = 0.25
   HFSCREEN = 0.2
   NBANDS = 640
   ENCUT = 450
   PREC = Accurate
   PRECFOCK = Fast
   LASPH = .TRUE.
   LREAL = .FALSE.
   ISMEAR = 0
   SIGMA = 0.05
   LNONCOLLINEAR = .TRUE.
   MAGMOM = 195*0
   NCORE = 32
   KPAR = 2

 POTCAR:    PAW_PBE Cd 06Sep2000                  
 POTCAR:    PAW_PBE Te 08Apr2002                  
 POTCAR:    PAW_PBE Cd 06Sep2000                  
   VRHFIN =Cd : s2 d10                                                                              
   LEXCH  = PE                                                                                      
   EATOM  =  1293.1815 eV,   95.0462 Ry                                                             
                                                                                                    
   TITEL  = PAW_PBE Cd 06Sep2000                                                                    
   LULTRA =        F    use ultrasoft PP ?                                                          
   IUNSCR =        1    unscreen: 0-lin 1-nonlin 2-no                                               
   RPACOR =    2.000    partial core radius                                                         
   POMASS =  112.411; ZVAL   =   12.000    mass and valenz                                          
   RCORE  =    2.300    outmost cutoff radius                                                       
   RWIGS  =    2.980; RWIGS  =    1.577    wigner-seitz radius (au A)                               
   ENMAX  =  274.336; ENMIN  =  205.752 eV                                                          
   RCLOC  =    2.054    cutoff for local pot                                                        
   LCOR   =        T    correct aug charges                                                         
   LPAW   =        T    paw PP                                                                      
   EAUG   =  456.106                                                                                
   DEXC   =    0.000                                                                                
   RMAX   =    2.358    core radius for proj-oper                                                   
   RAUG   =    1.300    factor for augmentation sphere                                              
   RDEP   =    2.450    radius for radial grids                                                     
   RDEPT  =    1.955    core radius for aug-charge                                                  
                                                                                                    
   Atomic configuration                                                                             
   12 entries                                                                                       
     n  l   j            E        occ.                                                              
     1  0  0.50    -26519.7817   2.0000                                                             
     2  0  0.50     -3936.9612   2.0000                                                             
     2  1  1.50     -3532.2230   6.0000                                                             
     3  0  0.50      -733.7908   2.0000                                                             
     3  1  1.50      -601.0792   6.0000                                                             
     3  2  2.50      -393.5307  10.0000                                                             
     4  0  0.50      -105.8977   2.0000                                                             
     4  1  1.50       -66.9488   6.0000                                                             
     4  2  2.50       -11.7331  10.0000                                                             
     5  0  0.50        -5.6592   2.0000                                                             
     5  1  0.50        -1.3606   0.0000                                                             
     4  3  2.50        -1.3606   0.0000                                                             
   Description                                                                                      
     l       E           TYP  RCUT    TYP  RCUT                                                     
     2    -11.7331479     23  2.300                                                                 
     2    -13.0937305     23  2.300                                                                 
     0     -5.6591502     23  2.300                                                                 
     0     -1.5561433     23  2.300                                                                 
     1     -2.7211652     23  2.300                                                                 
     1      8.3548275     23  2.300                                                                 
  local pseudopotential read in
  partial core-charges read in
  partial kinetic energy density read in
  atomic valenz-charges read in
  non local Contribution for L=           2  read in
    real space projection operators read in
  non local Contribution for L=           2  read in
    real space projection operators read in
  non local Contribution for L=           0  read in
    real space projection operators read in
  non local Contribution for L=           0  read in
    real space projection operators read in
  non local Contribution for L=           1  read in
    real space projection operators read in
  non local Contribution for L=           1  read in
    real space projection operators read in
    PAW grid and wavefunctions read in

   number of l-projection  operators is LMAX  =           6
   number of lm-projection operators is LMMAX =          18

 POTCAR:    PAW_PBE Te 08Apr2002                  
   VRHFIN =Te: s2p4                                                                                 
   LEXCH  = PE                                                                                      
   EATOM  =   223.2721 eV,   16.4100 Ry                                                             
                                                                                                    
   TITEL  = PAW_PBE Te 08Apr2002                                                                    
   LULTRA =        F    use ultrasoft PP ?                                                          
   IUNSCR =        1    unscreen: 0-lin 1-nonlin 2-no                                               
   RPACOR =    2.200    partial core radius                                                         
   POMASS =  127.600; ZVAL   =    6.000    mass and valenz                                          
   RCORE  =    2.300    outmost cutoff radius                                                       
   RWIGS  =    2.900; RWIGS  =    1.535    wigner-seitz radius (au A)                               
   ENMAX  =  174.982; ENMIN  =  131.236 eV                                                          
   ICORE  =        3    local potential                                                             
   LCOR   =        T    correct aug charges                                                         
   LPAW   =        T    paw PP                                                                      
   EAUG   =  368.792                                                                                
   DEXC   =    0.000                                                                                
   RMAX   =    2.345    core radius for proj-oper                                                   
   RAUG   =    1.300    factor for augmentation sphere                                              
   RDEP   =    2.397    radius for radial grids                                                     
   RDEPT  =    2.174    core radius for aug-charge                                                  
                                                                                                    
   Atomic configuration                                                                             
   13 entries                                                                                       
     n  l   j            E        occ.                                                              
     1  0  0.50    -31621.2075   2.0000                                                             
     2  0  0.50     -4848.7941   2.0000                                                             
     2  1  1.50     -4352.1960   6.0000                                                             
     3  0  0.50      -964.9612   2.0000                                                             
     3  1  1.50      -803.6179   6.0000                                                             
     3  2  2.50      -559.8710  10.0000                                                             
     4  0  0.50      -164.3522   2.0000                                                             
     4  1  1.50      -114.3756   6.0000                                                             
     4  2  2.50       -41.6483  10.0000                                                             
     5  0  0.50       -15.1072   2.0000                                                             
     5  1  0.50        -5.9526   4.0000                                                             
     5  2  1.50        -5.4423   0.0000                                                             
     4  3  2.50        -5.4423   0.0000                                                             
   Description                                                                                      
     l       E           TYP  RCUT    TYP  RCUT                                                     
     0    -15.1072389     23  2.300                                                                 
     0    -16.4678215     23  2.300                                                                 
     1     -5.9526306     23  2.300                                                                 
     1     -2.4873968     23  2.300                                                                 
     2     -5.4423304     23  2.300                                                                 
     3     -1.3605826     23  2.300                                                                 
  local pseudopotential read in
  partial core-charges read in
  partial kinetic energy density read in
  atomic valenz-charges read in
  non local Contribution for L=           0  read in
    real space projection operators read in
  non local Contribution for L=           0  read in
    real space projection operators read in
  non local Contribution for L=           1  read in
    real space projection operators read in
  non local Contribution for L=           1  read in
    real space projection operators read in
  non local Contribution for L=           2  read in
    real space projection operators read in
    PAW grid and wavefunctions read in

   number of l-projection  operators is LMAX  =           5
   number of lm-projection operators is LMMAX =          13

 -----------------------------------------------------------------------------
|                                                                             |
|               ----> ADVICE to this user running VASP <----                  |
|                                                                             |
|     You have a (more or less) 'large supercell' and for larger cells it     |
|     might be more efficient to use real-space projection operators.         |
|     Therefore, try LREAL= Auto in the INCAR file.                           |
|     Mind: For very accurate calculation, you might also keep the            |
|     reciprocal projection scheme (i.e. LREAL=.FALSE.).                      |
|                                                                             |
 -----------------------------------------------------------------------------

  PAW_PBE Cd 06Sep2000                  :
 energy of atom  1       EATOM=-1293.1815
 kinetic energy error for atom=    0.0084 (will be added to EATOM!!)
  PAW_PBE Te 08Apr2002                  :
 energy of atom  2       EATOM= -223.2721
 kinetic energy error for atom=    0.0008 (will be added to EATOM!!)


 POSCAR: Cd33 Te32
  positions in direct lattice
  No initial velocities read in
 exchange correlation table for  LEXCH =        8
   RHO(1)=    0.500       N(1)  =     2000
   RHO(2)=  100.500       N(2)  =     4000



--------------------------------------------------------------------------------------------------------


 ion  position               nearest neighbor table
   1  0.004  0.996  0.004-  44 2.79  35 2.93  54 2.93  65 2.93  33 2.94
   2  0.001  0.999  0.497-  55 2.82  34 2.82  64 2.82  45 2.84
   3  0.001  0.503  0.001-  63 2.82  56 2.82  37 2.82  42 2.84
   4  1.000  0.501  0.499-  57 2.82  62 2.82  36 2.82  43 2.84
   5  0.497  0.999  0.001-  39 2.82  50 2.82  61 2.82  48 2.84
   6  0.499  0.000  0.499-  38 2.82  51 2.82  60 2.82  49 2.84
   7  0.499  0.501  1.000-  41 2.82  59 2.82  52 2.82  46 2.84
   8  0.501  0.499  0.501-  47 2.82  40 2.83  53 2.83  58 2.83
   9  0.001  0.251  0.253-  54 2.82  34 2.82  62 2.82  42 2.84
  10  0.004  0.254  0.746-  43 2.79  35 2.93  55 2.93  63 2.93  33 2.94
  11  1.000  0.749  0.251-  56 2.82  64 2.82  36 2.82  44 2.84
  12  0.001  0.747  0.749-  65 2.82  57 2.82  37 2.82  45 2.84
  13  0.499  0.250  0.251-  38 2.82  50 2.82  58 2.82  46 2.84
  14  0.497  0.251  0.749-  39 2.82  51 2.82  59 2.82  47 2.84
  15  0.501  0.751  0.249-  48 2.82  40 2.83  52 2.83  60 2.83
  16  0.499  0.749  0.750-  41 2.82  61 2.82  53 2.82  49 2.84
  17  0.251  0.000  0.251-  34 2.82  50 2.82  60 2.82  44 2.84
  18  0.253  0.999  0.749-  35 2.82  51 2.82  61 2.82  45 2.84
  19  0.249  0.499  0.249-  42 2.82  36 2.83  52 2.83  58 2.83
  20  0.251  0.501  0.750-  37 2.82  59 2.82  53 2.82  43 2.84
  21  0.749  0.999  0.253-  54 2.82  38 2.82  64 2.82  48 2.84
  22  0.746  0.996  0.746-  49 2.79  39 2.93  55 2.93  65 2.93  33 2.94
  23  0.750  0.501  0.251-  56 2.82  62 2.82  40 2.82  46 2.84
  24  0.749  0.503  0.749-  63 2.82  57 2.82  41 2.82  47 2.84
  25  0.253  0.251  0.001-  35 2.82  50 2.82  59 2.82  42 2.84
  26  0.251  0.250  0.499-  34 2.82  51 2.82  58 2.82  43 2.84
  27  0.251  0.749  1.000-  37 2.82  61 2.82  52 2.82  44 2.84
  28  0.249  0.751  0.501-  45 2.82  36 2.83  53 2.83  60 2.83
  29  0.746  0.254  0.004-  46 2.79  39 2.93  54 2.93  63 2.93  33 2.94
  30  0.749  0.251  0.497-  55 2.82  38 2.82  62 2.82  47 2.84
  31  0.749  0.747  0.001-  65 2.82  56 2.82  41 2.82  48 2.84
  32  0.750  0.749  0.499-  57 2.82  64 2.82  40 2.82  49 2.84
  33  0.875  0.125  0.875-   1 2.94  10 2.94  22 2.94  29 2.94  35 3.37  39 3.37  54 3.37  55 3.37
                            63 3.37  65 3.37
  34  0.127  0.125  0.375-  17 2.82  26 2.82   2 2.82   9 2.82
  35  0.133  0.125  0.875-  18 2.82  25 2.82  10 2.93   1 2.93  33 3.37
  36  0.126  0.625  0.375-   4 2.82  11 2.82  19 2.83  28 2.83
  37  0.127  0.625  0.875-  20 2.82  27 2.82   3 2.82  12 2.82
  38  0.623  0.125  0.375-  13 2.82   6 2.82  21 2.82  30 2.82
  39  0.617  0.125  0.875-  14 2.82   5 2.82  22 2.93  29 2.93  33 3.37
  40  0.624  0.625  0.375-  23 2.82  32 2.82   8 2.83  15 2.83
  41  0.623  0.625  0.875-   7 2.82  16 2.82  31 2.82  24 2.82
  42  0.125  0.375  0.125-  19 2.82   9 2.84  25 2.84   3 2.84
  43  0.127  0.377  0.623-  10 2.79   4 2.84  26 2.84  20 2.84
  44  0.127  0.873  0.127-   1 2.79  11 2.84  17 2.84  27 2.84
  45  0.125  0.875  0.625-  28 2.82  18 2.84   2 2.84  12 2.84
  46  0.623  0.377  0.127-  29 2.79  13 2.84  23 2.84   7 2.84
  47  0.625  0.375  0.625-   8 2.82  14 2.84  24 2.84  30 2.84
  48  0.625  0.875  0.125-  15 2.82  21 2.84   5 2.84  31 2.84
  49  0.623  0.873  0.623-  22 2.79  32 2.84   6 2.84  16 2.84
  50  0.375  0.125  0.127-  17 2.82  13 2.82   5 2.82  25 2.82
  51  0.375  0.125  0.623-   6 2.82  26 2.82  18 2.82  14 2.82
  52  0.375  0.625  0.126-   7 2.82  27 2.82  19 2.83  15 2.83
  53  0.375  0.625  0.624-  16 2.82  20 2.82   8 2.83  28 2.83
  54  0.875  0.125  0.133-   9 2.82  21 2.82   1 2.93  29 2.93  33 3.37
  55  0.875  0.125  0.617-  30 2.82   2 2.82  22 2.93  10 2.93  33 3.37
  56  0.875  0.625  0.127-  11 2.82  23 2.82   3 2.82  31 2.82
  57  0.875  0.625  0.623-   4 2.82  32 2.82  12 2.82  24 2.82
  58  0.375  0.376  0.375-  26 2.82  13 2.82  19 2.83   8 2.83
  59  0.375  0.377  0.875-   7 2.82  20 2.82  14 2.82  25 2.82
  60  0.375  0.874  0.375-   6 2.82  17 2.82  15 2.83  28 2.83
  61  0.375  0.873  0.875-  16 2.82  27 2.82   5 2.82  18 2.82
  62  0.875  0.377  0.375-   4 2.82  23 2.82   9 2.82  30 2.82
  63  0.875  0.383  0.875-  24 2.82   3 2.82  10 2.93  29 2.93  33 3.37
  64  0.875  0.873  0.375-  11 2.82  32 2.82   2 2.82  21 2.82
  65  0.875  0.867  0.875-  12 2.82  31 2.82   1 2.93  22 2.93  33 3.37

  LATTYP: Found a simple cubic cell.
 ALAT       =    13.0867680000
  
  Lattice vectors:
  
 A1 = (  13.0867680000,   0.0000000000,   0.0000000000)
 A2 = (   0.0000000000,  13.0867680000,   0.0000000000)
 A3 = (   0.0000000000,   0.0000000000,  13.0867680000)


Analysis of symmetry for initial positions (statically):
=====================================================================
 Subroutine PRICEL returns:
 Original cell was already a primitive cell.
 

 Routine SETGRP: Setting up the symmetry group for a 
 simple cubic supercell.


 Subroutine GETGRP returns: Found 24 space group operations
 (whereof  6 operations were pure point group operations)
 out of a pool of 48 trial point group operations.


The static configuration has the point symmetry C_3v.
 The point group associated with its full space group is T_d .


Analysis of symmetry for dynamics (positions and initial velocities):
=====================================================================
 Subroutine PRICEL returns:
 Original cell was already a primitive cell.
 

 Routine SETGRP: Setting up the symmetry group for a 
 simple cubic supercell.


 Subroutine GETGRP returns: Found 24 space group operations
 (whereof  6 operations were pure point group operations)
 out of a pool of 48 trial point group operations.


The dynamic configuration has the point symmetry C_3v.
 The point group associated with its full space group is T_d .


Analysis of structural, dynamic, and magnetic symmetry:
=====================================================================
 Subroutine PRICEL returns:
 Original cell was already a primitive cell.
 

 Routine SETGRP: Setting up the symmetry group for a 
 simple cubic supercell.


 Subroutine GETGRP returns: Found 24 space group operations
 (whereof  6 operations were pure point group operations)
 out of a pool of 48 trial point group operations.


The overall configuration has the point symmetry C_3v.
 The point group associated with its full space group is T_d .


 Subroutine INISYM returns: Found 24 space group operations
 (whereof  6 operations are pure point group operations),
 and found     1 'primitive' translations


----------------------------------------------------------------------------------------

                                     Primitive cell                                     

  volume of cell :    2241.2856

  direct lattice vectors                    reciprocal lattice vectors
    13.086768000  0.000000000  0.000000000     0.076413061  0.000000000  0.000000000
     0.000000000 13.086768000  0.000000000     0.000000000  0.076413061  0.000000000
     0.000000000  0.000000000 13.086768000     0.000000000  0.000000000  0.076413061

  length of vectors
    13.086768000 13.086768000 13.086768000     0.076413061  0.076413061  0.076413061

  position of ions in fractional coordinates (direct lattice)
     0.004485000  0.995515000  0.004485000
     0.001247000  0.998753000  0.496959000
     0.001247000  0.503041000  0.001247000
     0.999625000  0.501218000  0.498782000
     0.496959000  0.998753000  0.001247000
     0.498781000  0.000375000  0.498781000
     0.498781000  0.501219000  0.999625000
     0.500528000  0.499472000  0.500528000
     0.001247000  0.251247000  0.253040000
     0.004486000  0.254485000  0.745515000
     0.999625000  0.748782000  0.251218000
     0.001247000  0.746959000  0.748753000
     0.498782000  0.249625000  0.251219000
     0.496960000  0.251247000  0.748753000
     0.500528000  0.750528000  0.249472000
     0.498781000  0.748781000  0.750375000
     0.251219000  0.000375000  0.251219000
     0.253040000  0.998753000  0.748753000
     0.249472000  0.499472000  0.249472000
     0.251219000  0.501219000  0.750375000
     0.748753000  0.998753000  0.253040000
     0.745514000  0.995515000  0.745515000
     0.750375000  0.501219000  0.251219000
     0.748753000  0.503040000  0.748753000
     0.253040000  0.251247000  0.001247000
     0.251219000  0.249625000  0.498781000
     0.251219000  0.748781000  0.999625000
     0.249472000  0.750528000  0.500528000
     0.745514000  0.254485000  0.004485000
     0.748753000  0.251247000  0.496960000
     0.748753000  0.746959000  0.001247000
     0.750375000  0.748782000  0.498782000
     0.875000000  0.125000000  0.875000000
     0.126656000  0.125000000  0.375000000
     0.132779000  0.125000000  0.875000000
     0.125892000  0.625000000  0.375000000
     0.126656000  0.625000000  0.875000000
     0.623344000  0.125000000  0.375000000
     0.617221000  0.125000000  0.875000000
     0.624108000  0.625000000  0.375000000
     0.623344000  0.625000000  0.875000000
     0.124848000  0.374848000  0.124848000
     0.127488000  0.377488000  0.622512000
     0.127488000  0.872512000  0.127488000
     0.124848000  0.875152000  0.625152000
     0.622512000  0.377488000  0.127488000
     0.625152000  0.374848000  0.625152000
     0.625152000  0.875152000  0.124848000
     0.622512000  0.872512000  0.622512000
     0.375000000  0.125000000  0.126656000
     0.375000000  0.125000000  0.623344000
     0.375000000  0.625000000  0.125892000
     0.375000000  0.625000000  0.624108000
     0.875000000  0.125000000  0.132779000
     0.875000000  0.125000000  0.617221000
     0.875000000  0.625000000  0.126656000
     0.875000000  0.625000000  0.623344000
     0.375000000  0.375892000  0.375000000
     0.375000000  0.376656000  0.875000000
     0.375000000  0.874108000  0.375000000
     0.375000000  0.873344000  0.875000000
     0.875000000  0.376656000  0.375000000
     0.875000000  0.382779000  0.875000000
     0.875000000  0.873344000  0.375000000
     0.875000000  0.867221000  0.875000000

  ion indices of the primitive-cell ions
   primitive index   ion index
                 1           1
                 2           2
                 3           3
                 4           4
                 5           5
                 6           6
                 7           7
                 8           8
                 9           9
                10          10
                11          11
                12          12
                13          13
                14          14
                15          15
                16          16
                17          17
                18          18
                19          19
                20          20
                21          21
                22          22
                23          23
                24          24
                25          25
                26          26
                27          27
                28          28
                29          29
                30          30
                31          31
                32          32
                33          33
                34          34
                35          35
                36          36
                37          37
                38          38
                39          39
                40          40
                41          41
                42          42
                43          43
                44          44
                45          45
                46          46
                47          47
                48          48
                49          49
                50          50
                51          51
                52          52
                53          53
                54          54
                55          55
                56          56
                57          57
                58          58
                59          59
                60          60
                61          61
                62          62
                63          63
                64          64
                65          65

----------------------------------------------------------------------------------------



 KPOINTS: 2x2x2 Gamma                             

Automatic generation of k-mesh.
 Grid dimensions read from file:
 generate k-points for:    2    2    2

 Generating k-lattice:

  Cartesian coordinates                     Fractional coordinates (reciprocal lattice)
     0.038206530  0.000000000  0.000000000     0.500000000  0.000000000  0.000000000
     0.000000000  0.038206530  0.000000000     0.000000000  0.500000000  0.000000000
     0.000000000  0.000000000  0.038206530     0.000000000  0.000000000  0.500000000

  Length of vectors
     0.038206530  0.038206530  0.038206530

  Shift w.r.t. Gamma in fractional coordinates (k-lattice)
     0.500000000  0.500000000  0.500000000

 
 Subroutine IBZKPT returns following result:
 ===========================================
 
 Found      2 irreducible k-points:
 
 Following reciprocal coordinates:
            Coordinates               Weight
  0.250000  0.250000  0.250000      4.000000
 -0.250000 -0.250000 -0.250000      4.000000
 
 Following cartesian coordinates:
            Coordinates               Weight
  0.019103  0.019103  0.019103      4.000000
 -0.019103 -0.019103 -0.019103      4.000000
 
 
 Subroutine IBZKPT_HF returns following result:
 ==============================================
 
 Found      8 k-points in 1st BZ
 the following      8 k-points will be used (e.g. in the exchange kernel)
 Following reciprocal coordinates:   # in IRBZ
  0.250000  0.250000  0.250000    0.12500000   1 t-inv F
 -0.250000 -0.250000 -0.250000    0.12500000   2 t-inv F
  0.250000 -0.250000 -0.250000    0.12500000   1 t-inv F
 -0.250000 -0.250000  0.250000    0.12500000   1 t-inv F
 -0.250000  0.250000 -0.250000    0.12500000   1 t-inv F
 -0.250000  0.250000  0.250000    0.12500000   2 t-inv F
  0.250000  0.250000 -0.250000    0.12500000   2 t-inv F
  0.250000 -0.250000  0.250000    0.12500000   2 t-inv F


--------------------------------------------------------------------------------------------------------




 Dimension of arrays:
   k-points           NKPTS =      2   k-points in BZ     NKDIM =      8   number of bands    NBANDS=    640
   number of dos      NEDOS =    301   number of ions     NIONS =     65
   non local maximal  LDIM  =      6   non local SUM 2l+1 LMDIM =     18
   total plane-waves  NPLWV = 884736
   max r-space proj   IRMAX =      1   max aug-charges    IRDMAX=  23156
   dimension x,y,z NGX =    96 NGY =   96 NGZ =   96
   dimension x,y,z NGXF=   192 NGYF=  192 NGZF=  192
   support grid    NGXF=   192 NGYF=  192 NGZF=  192
   ions per type =              33  32
   NGX,Y,Z   is equivalent  to a cutoff of  12.20, 12.20, 12.20 a.u.
   NGXF,Y,Z  is equivalent  to a cutoff of  24.39, 24.39, 24.39 a.u.

 SYSTEM =  CdTe                                    
 POSCAR =  Cd33 Te32                               

 Startparameter for this run:
   NWRITE =      2    write-flag & timer
   PREC   = accura    normal or accurate (medium, high low for compatibility)
   ISTART =      0    job   : 0-new  1-cont  2-samecut
   ICHARG =      2    charge: 1-file 2-atom 10-const
   ISPIN  =      1    spin polarized calculation?
   LNONCOLLINEAR =      T non collinear calculations
   LSORBIT =      F    spin-orbit coupling
   INIWAV =      1    electr: 0-lowe 1-rand  2-diag
   LASPH  =      T    aspherical Exc in radial PAW
 Electronic Relaxation 1
   ENCUT  =  450.0 eV  33.07 Ry    5.75 a.u.  22.64 22.64 22.64*2*pi/ulx,y,z
   ENINI  =  450.0     initial cutoff
   ENAUG  =  456.1 eV  augmentation charge cutoff
   NELM   =      7;   NELMIN=  2; NELMDL=  5     # of ELM steps 
   EDIFF  = 0.1E-03   stopping-criterion for ELM
   LREAL  =      F    real-space projection
   NLSPLINE    = F    spline interpolate recip. space projectors
   LCOMPAT=      F    compatible to vasp.4.4
   GGA_COMPAT  = T    GGA compatible to vasp.4.4-vasp.4.6
   LMAXPAW     = -100 max onsite density
   LMAXMIX     =    2 max onsite mixed and CHGCAR
   VOSKOWN=      0    Vosko Wilk Nusair interpolation
   ROPT   =    0.00000   0.00000
 Ionic relaxation
   EDIFFG = 0.1E-02   stopping-criterion for IOM
   NSW    =      0    number of steps for IOM
   NBLOCK =      1;   KBLOCK =      1    inner block; outer block 
   IBRION =     -1    ionic relax: 0-MD 1-quasi-New 2-CG
   NFREE  =      0    steps in history (QN), initial steepest desc. (CG)
   ISIF   =      2    stress and relaxation
   IWAVPR =     10    prediction:  0-non 1-charg 2-wave 3-comb
   ISYM   =      3    0-nonsym 1-usesym 2-fastsym
   LCORR  =      T    Harris-Foulkes like correction to forces

   POTIM  = 0.5000    time-step for ionic-motion
   TEIN   =    0.0    initial temperature
   TEBEG  =    0.0;   TEEND  =   0.0 temperature during run
   SMASS  =  -3.00    Nose mass-parameter (am)
   estimated Nose-frequenzy (Omega)   =  0.10E-29 period in steps = 0.13E+47 mass=  -0.391E-26a.u.
   SCALEE = 1.0000    scale energy and forces
   NPACO  =    256;   APACO  = 10.0  distance and # of slots for P.C.
   PSTRESS=    0.0 pullay stress

  Mass of Ions in am
   POMASS = 112.41127.60
  Ionic Valenz
   ZVAL   =  12.00  6.00
  Atomic Wigner-Seitz radii
   RWIGS  =  -1.00 -1.00
  virtual crystal weights 
   VCA    =   1.00  1.00
   NELECT =     588.0000    total number of electrons
   NUPDOWN=      -1.0000    fix difference up-down

 DOS related values:
   EMIN   =  10.00;   EMAX   =-10.00  energy-range for DOS
   EFERMI =   0.00;   METHOD = LEGACY      
   ISMEAR =     0;   SIGMA  =   0.05  broadening in eV -4-tet -1-fermi 0-gaus

 Electronic relaxation 2 (details)
   IALGO  =     58    algorithm
   LDIAG  =      T    sub-space diagonalisation (order eigenvalues)
   LSUBROT=      F    optimize rotation matrix (better conditioning)
   TURBO    =      0    0=normal 1=particle mesh
   IRESTART =      0    0=no restart 2=restart with 2 vectors
   NREBOOT  =      0    no. of reboots
   NMIN     =      0    reboot dimension
   EREF     =   0.00    reference energy to select bands
   IMIX   =      4    mixing-type and parameters
     AMIX     =   0.40;   BMIX     =  1.00
     AMIX_MAG =   1.60;   BMIX_MAG =  1.00
     AMIN     =   0.10
     WC   =   100.;   INIMIX=   1;  MIXPRE=   1;  MAXMIX= -45

 Intra band minimization:
   WEIMIN = 0.0000     energy-eigenvalue tresh-hold
   EBREAK =  0.39E-07  absolut break condition
   DEPER  =   0.30     relativ break condition  

   TIME   =   0.40     timestep for ELM

  volume/ion in A,a.u.               =      34.48       232.69
  Fermi-wavevector in a.u.,A,eV,Ry     =   1.048017  1.980464 14.943809  1.098339
  Thomas-Fermi vector in A             =   2.182921

 Write flags
   LWAVE        =      F    write WAVECAR
   LDOWNSAMPLE  =      F    k-point downsampling of WAVECAR
   LCHARG       =      F    write CHGCAR
   LVTOT        =      F    write LOCPOT, total local potential
   LVHAR        =      F    write LOCPOT, Hartree potential only
   LELF         =      F    write electronic localiz. function (ELF)
   LORBIT       =      0    0 simple, 1 ext, 2 COOP (PROOUT), +10 PAW based schemes


 Dipole corrections
   LMONO  =      F    monopole corrections only (constant potential shift)
   LDIPOL =      F    correct potential (dipole corrections)
   IDIPOL =      0    1-x, 2-y, 3-z, 4-all directions 
   EPSILON=  1.0000000 bulk dielectric constant

 Exchange correlation treatment:
   GGA     =    --    GGA type
   LEXCH   =     8    internal setting for exchange type
   LIBXC   =     F    Libxc                    
   VOSKOWN =     0    Vosko Wilk Nusair interpolation
   EXXOEP  =     0    0=HF, 1=EXX-LHF (local Hartree Fock) 2=EXX OEP
   LHFCALC =     T    Hartree Fock is set to
   LSYMGRAD=     F    symmetrize gradient (conserves proper symmetry)
   PRECFOCK=fast      Normal, Fast or Accurate (Low or Medium for compatibility)
   LRHFCALC=     F    long range Hartree Fock
   LRSCOR  =     F    long range correlation only (use DFT for short range part)
   LTHOMAS =     F    Thomas Fermi screening in HF
   LMODELHF=     F    short range full HF, long range fraction AEXX
   FOCKCORR=     1    mode to apply convergence corrections
   LFOCKACE=     T    use Adeptively-Compressed-Exchange operator
   ENCUT4O =  -1.0   cutoff for four orbital integrals eV
   LMAXFOCK=     4    L truncation for augmentation on plane wave grid
   LMAXFOCKAE=  -1    L truncation for all-electron charge restoration on plane wave grid
   NMAXFOCKAE=   1    number of basis functions for all-electron charge restoration
   LFOCKAEDFT=     F  apply the AE augmentation even for DFT
   NKREDX  =     1    reduce k-point grid by
   NKREDY  =     1    reduce k-point grid by
   NKREDZ  =     1    reduce k-point grid by
   SHIFTRED=     F    shift reduced grid of Gamma
   HFKIDENT=     F    idential grid for each k-point
   ODDONLY =     F    use only odd q-grid points
   EVENONLY=     F    use only even q-grid points
   HFALPHA =   -1.0000 decay constant for conv. correction
   MCALPHA =    0.0000 extent of test-charge in conv. correction in multipole expansion
   AEXX    =    0.2500 exact exchange contribution
   HFSCREEN=    0.2000 screening length (either q_TF or 0.3 A-1)
   HFSCREENC=   0.2000 screening length for correlation (either q_TF or 0.3 A-1)
   HFRCUT  =    0.0000 spherical cutoff for potential kernel
   ALDAX   =    0.7500 LDA exchange part
   AGGAX   =    0.7500 GGA exchange part
   ALDAC   =    1.0000 LDA correlation
   AGGAC   =    1.0000 GGA correlation
   ENCUTFOCK=  -1.0 apply spherical cutoff to Coloumb kernel
   NBANDSGWLOW=     1    first orbital included in HF term
   NBLOCK_FOCK=     8    blocking factor in FOCK_ACC

 Linear response parameters
   LEPSILON=     F    determine dielectric tensor
   LRPA    =     F    only Hartree local field effects (RPA)
   LNABLA  =     F    use nabla operator in PAW spheres
   LVEL    =     F    velocity operator in full k-point grid
   CSHIFT  =0.1000    complex shift for real part using Kramers Kronig
   OMEGAMAX=  -1.0    maximum frequency
   DEG_THRESHOLD= 0.2000000E-02 threshold for treating states as degnerate
   RTIME   =   -0.100 relaxation time in fs
  (WPLASMAI=    0.000 imaginary part of plasma frequency in eV, 0.658/RTIME)
   DFIELD  = 0.0000000 0.0000000 0.0000000 field for delta impulse in time

  Optional k-point grid parameters
   LKPOINTS_OPT  =     F    use optional k-point grid
   KPOINTS_OPT_MODE=     1    mode for optional k-point grid

 Orbital magnetization related:
   ORBITALMAG=     F  switch on orbital magnetization
   LCHIMAG   =     F  perturbation theory with respect to B field
   DQ        =  0.001000  dq finite difference perturbation B field
   LLRAUG    =     F  two centre corrections for induced B field
   LBONE     =     F  B-component reconstruction in AE one-centre
   LVGVCALC  =     T  calculate vGv susceptibility
   LVGVAPPL  =     F  apply vGv susceptibility instead of pGv for G=0

 Random number generation:
   RANDOM_GENERATOR = DEFAULT
   PCG_SEED         = not used


--------------------------------------------------------------------------------------------------------


 Static calculation
 charge density and potential will be updated during run
 non collinear spin polarized calculation
 Conjugate gradient for all bands (Freysoldt, et al. PRB 79, 241103 (2009))
 preconditioned conjugated gradient                                        
 perform sub-space diagonalisation
    before iterative eigenvector-optimisation
 modified Broyden-mixing scheme, WC =      100.0
 initial mixing is a Kerker type mixing with AMIX =  0.4000 and BMIX =      1.0000
 Hartree-type preconditioning will be used
 using additional bands          346
 reciprocal scheme for non local part
 use partial core corrections
 no Harris-corrections to forces 
 use gradient corrections 
 use of overlap-Matrix (Vanderbilt PP)
 Gauss-broadening in eV      SIGMA  =   0.05


--------------------------------------------------------------------------------------------------------


  energy-cutoff  :      450.00
  volume of cell :     2241.29
      direct lattice vectors                 reciprocal lattice vectors
    13.086768000  0.000000000  0.000000000     0.076413061  0.000000000  0.000000000
     0.000000000 13.086768000  0.000000000     0.000000000  0.076413061  0.000000000
     0.000000000  0.000000000 13.086768000     0.000000000  0.000000000  0.076413061

  length of vectors
    13.086768000 13.086768000 13.086768000     0.076413061  0.076413061  0.076413061



 k-points in units of 2pi/SCALE and weight: 2x2x2 Gamma                             
   0.01910327  0.01910327  0.01910327       0.500
  -0.01910327 -0.01910327 -0.01910327       0.500

 k-points in reciprocal lattice and weights: 2x2x2 Gamma                             
   0.25000000  0.25000000  0.25000000       0.500
  -0.25000000 -0.25000000 -0.25000000       0.500

 position of ions in fractional coordinates (direct lattice) 
   0.00448500  0.99551500  0.00448500
   0.00124700  0.99875300  0.49695900
   0.00124700  0.50304100  0.00124700
   0.99962500  0.50121800  0.49878200
   0.49695900  0.99875300  0.00124700
   0.49878100  0.00037500  0.49878100
   0.49878100  0.50121900  0.99962500
   0.50052800  0.49947200  0.50052800
   0.00124700  0.25124700  0.25304000
   0.00448600  0.25448500  0.74551500
   0.99962500  0.74878200  0.25121800
   0.00124700  0.74695900  0.74875300
   0.49878200  0.24962500  0.25121900
   0.49696000  0.25124700  0.74875300
   0.50052800  0.75052800  0.24947200
   0.49878100  0.74878100  0.75037500
   0.25121900  0.00037500  0.25121900
   0.25304000  0.99875300  0.74875300
   0.24947200  0.49947200  0.24947200
   0.25121900  0.50121900  0.75037500
   0.74875300  0.99875300  0.25304000
   0.74551400  0.99551500  0.74551500
   0.75037500  0.50121900  0.25121900
   0.74875300  0.50304000  0.74875300
   0.25304000  0.25124700  0.00124700
   0.25121900  0.24962500  0.49878100
   0.25121900  0.74878100  0.99962500
   0.24947200  0.75052800  0.50052800
   0.74551400  0.25448500  0.00448500
   0.74875300  0.25124700  0.49696000
   0.74875300  0.74695900  0.00124700
   0.75037500  0.74878200  0.49878200
   0.87500000  0.12500000  0.87500000
   0.12665600  0.12500000  0.37500000
   0.13277900  0.12500000  0.87500000
   0.12589200  0.62500000  0.37500000
   0.12665600  0.62500000  0.87500000
   0.62334400  0.12500000  0.37500000
   0.61722100  0.12500000  0.87500000
   0.62410800  0.62500000  0.37500000
   0.62334400  0.62500000  0.87500000
   0.12484800  0.37484800  0.12484800
   0.12748800  0.37748800  0.62251200
   0.12748800  0.87251200  0.12748800
   0.12484800  0.87515200  0.62515200
   0.62251200  0.37748800  0.12748800
   0.62515200  0.37484800  0.62515200
   0.62515200  0.87515200  0.12484800
   0.62251200  0.87251200  0.62251200
   0.37500000  0.12500000  0.12665600
   0.37500000  0.12500000  0.62334400
   0.37500000  0.62500000  0.12589200
   0.37500000  0.62500000  0.62410800
   0.87500000  0.12500000  0.13277900
   0.87500000  0.12500000  0.61722100
   0.87500000  0.62500000  0.12665600
   0.87500000  0.62500000  0.62334400
   0.37500000  0.37589200  0.37500000
   0.37500000  0.37665600  0.87500000
   0.37500000  0.87410800  0.37500000
   0.37500000  0.87334400  0.87500000
   0.87500000  0.37665600  0.37500000
   0.87500000  0.38277900  0.87500000
   0.87500000  0.87334400  0.37500000
   0.87500000  0.86722100  0.87500000

 position of ions in cartesian coordinates  (Angst):
   0.05869415 13.02807385  0.05869415
   0.01631920 13.07044880  6.50358714
   0.01631920  6.58318086  0.01631920
  13.08186046  6.55932368  6.52744432
   6.50358714 13.07044880  0.01631920
   6.52743123  0.00490754  6.52743123
   6.52743123  6.55933677 13.08186046
   6.55029381  6.53647419  6.55029381
   0.01631920  3.28801120  3.31147577
   0.05870724  3.33038615  9.75638185
  13.08186046  9.79913632  3.28763168
   0.01631920  9.77527914  9.79875680
   6.52744432  3.26678446  3.28764477
   6.50360023  3.28801120  9.79875680
   6.55029381  9.82198581  3.26478219
   6.52743123  9.79912323  9.81998354
   3.28764477  0.00490754  3.28764477
   3.31147577 13.07044880  9.79875680
   3.26478219  6.53647419  3.26478219
   3.28764477  6.55933677  9.81998354
   9.79875680 13.07044880  3.31147577
   9.75636876 13.02807385  9.75638185
   9.81998354  6.55933677  3.28764477
   9.79875680  6.58316777  9.79875680
   3.31147577  3.28801120  0.01631920
   3.28764477  3.26678446  6.52743123
   3.28764477  9.79912323 13.08186046
   3.26478219  9.82198581  6.55029381
   9.75636876  3.33038615  0.05869415
   9.79875680  3.28801120  6.50360023
   9.79875680  9.77527914  0.01631920
   9.81998354  9.79913632  6.52744432
  11.45092200  1.63584600 11.45092200
   1.65751769  1.63584600  4.90753800
   1.73764797  1.63584600 11.45092200
   1.64751940  8.17923000  4.90753800
   1.65751769  8.17923000 11.45092200
   8.15755831  1.63584600  4.90753800
   8.07742803  1.63584600 11.45092200
   8.16755660  8.17923000  4.90753800
   8.15755831  8.17923000 11.45092200
   1.63385681  4.90554881  1.63385681
   1.66840588  4.94009788  8.14667012
   1.66840588 11.41836212  1.66840588
   1.63385681 11.45291119  8.18121919
   8.14667012  4.94009788  1.66840588
   8.18121919  4.90554881  8.18121919
   8.18121919 11.45291119  1.63385681
   8.14667012 11.41836212  8.14667012
   4.90753800  1.63584600  1.65751769
   4.90753800  1.63584600  8.15755831
   4.90753800  8.17923000  1.64751940
   4.90753800  8.17923000  8.16755660
  11.45092200  1.63584600  1.73764797
  11.45092200  1.63584600  8.07742803
  11.45092200  8.17923000  1.65751769
  11.45092200  8.17923000  8.15755831
   4.90753800  4.91921140  4.90753800
   4.90753800  4.92920969 11.45092200
   4.90753800 11.43924860  4.90753800
   4.90753800 11.42925031 11.45092200
  11.45092200  4.92920969  4.90753800
  11.45092200  5.00933997 11.45092200
  11.45092200 11.42925031  4.90753800
  11.45092200 11.34912003 11.45092200

 Euler angles ALPHA=     0.0000000  BETA=     0.0000000

 transformation matrix from SAXIS to cartesian coordinates
 ---------------------------------------------------------
     1.0000000 m_x    -0.0000000 m_y     0.0000000 m_z
     0.0000000 m_x     1.0000000 m_y     0.0000000 m_z
    -0.0000000 m_x     0.0000000 m_y     1.0000000 m_z

 transformation matrix from cartesian coordinates to SAXIS
 ---------------------------------------------------------
     1.0000000 m_x     0.0000000 m_y    -0.0000000 m_z
    -0.0000000 m_x     1.0000000 m_y     0.0000000 m_z
     0.0000000 m_x     0.0000000 m_y     1.0000000 m_z




--------------------------------------------------------------------------------------------------------


 k-point   1 :   0.2500 0.2500 0.2500  plane waves:   97156
 k-point   2 :  -0.2500-0.2500-0.2500  plane waves:   97156

 maximum and minimum number of plane-waves per node :      3094     2978

 maximum number of plane-waves:     97156
 maximum index in each direction: 
   IXMAX=   22   IYMAX=   22   IZMAX=   22
   IXMIN=  -22   IYMIN=  -22   IZMIN=  -22


 parallel 3D FFT for wavefunctions:
    minimum data exchange during FFTs selected (reduces bandwidth)
 parallel 3D FFT for charge:
    minimum data exchange during FFTs selected (reduces bandwidth)


 FFT grid for exact exchange (Hartree Fock) 
  NGX = 48; NGY = 48; NGZ = 48


 Radii for the augmentation spheres in the non-local exchange
 for species   1 augmentation radius   1.444 (default was   1.070)
       energy cutoff for augmentation   1800.0
 for species   2 augmentation radius   1.606 (default was   1.190)
       energy cutoff for augmentation   1800.0

 real space projection operators:
  total allocation   :       9375.20 KBytes
  max/ min on nodes  :        432.62        141.21

 Maximum index for augmentation-charges in exchange           97
  SETUP_FOCK is finished

 total amount of memory used by VASP MPI-rank0    52849. kBytes
=======================================================================

   base      :      30000. kBytes
   nonl-proj :       2689. kBytes
   fftplans  :       4316. kBytes
   grid      :      12386. kBytes
   one-center:        186. kBytes
   HF        :        129. kBytes
   nonlr-proj:       1424. kBytes
   wavefun   :       1719. kBytes

     INWAV:  cpu time      0.0000: real time      0.0000
 Broyden mixing: mesh for mixing (old mesh)
   NGX = 45   NGY = 45   NGZ = 45
  (NGX  =192   NGY  =192   NGZ  =192)
  gives a total of  91125 points

 initial charge density was supplied:
 charge density of overlapping atoms calculated
 number of electron     588.0000000 magnetization       0.0000000      0.0000000      0.0000000
 keeping initial charge density in first step


--------------------------------------------------------------------------------------------------------


 Maximum index for augmentation-charges          775 (set IRDMAX)


--------------------------------------------------------------------------------------------------------


 First call to EWALD:  gamma=   0.135
 Maximum number of real-space cells 3x 3x 3
 Maximum number of reciprocal cells 3x 3x 3

    FEWALD:  cpu time      0.0037: real time      0.0037


--------------------------------------- Ionic step        1  -------------------------------------------




--------------------------------------- Iteration      1(   1)  ---------------------------------------


    POTLOK:  cpu time      2.7107: real time      2.7135
    SETDIJ:  cpu time      0.5926: real time      0.5929
    TRIAL :  cpu time    344.8515: real time    345.0136
    CORREC:  cpu time      0.0038: real time      0.0038
    --------------------------------------------
      LOOP:  cpu time    348.1770: real time    348.3423

 eigenvalue-minimisations  :  2560
 total energy-change (2. order) :-0.6563282E+05  (-0.2612724E+05)
 number of electron     588.0000000 magnetization       0.0000000      0.0000000      0.0000000
 augmentation part      588.0000000 magnetization       0.0000000      0.0000000      0.0000000

 Free energy of the ion-electron system (eV)
  ---------------------------------------------------
  alpha Z        PSCENC =      1642.45118531
  Ewald energy   TEWEN  =    -33940.17512420
  -Hartree energ DENC   =    -17077.89199325
  -exchange      EXHF   =         0.00000000
  -V(xc)+E(xc)   XCENC  =      -720.79451392
  PAW double counting   =     46138.45347506  -111612.37425480
  entropy T*S    EENTRO =        -0.01735328
  eigenvalues    EBANDS =       188.09992177
  atomic energy  EATOM  =     49749.42546354
  ---------------------------------------------------
  free energy    TOTEN  =    -65632.82319376 eV

  energy without entropy =   -65632.80584049  energy(sigma->0) =   -65632.81451712
  exchange ACFDT corr.  =         0.00000000  see jH, gK, PRB 81, 115126


--------------------------------------------------------------------------------------------------------




--------------------------------------- Iteration      1(   2)  ---------------------------------------


    TRIAL :  cpu time      5.6070: real time      5.6098
    CORREC:  cpu time      0.0020: real time      0.0020
    --------------------------------------------
      LOOP:  cpu time      5.6284: real time      5.6658

 eigenvalue-minimisations  :  2944
 total energy-change (2. order) :-0.3637481E+04  (-0.3621561E+04)
 number of electron     588.0000000 magnetization       0.0000000      0.0000000      0.0000000
 augmentation part      588.0000000 magnetization       0.0000000      0.0000000      0.0000000

 Free energy of the ion-electron system (eV)
  ---------------------------------------------------
  alpha Z        PSCENC =      1642.45118531
  Ewald energy   TEWEN  =    -33940.17512420
  -Hartree energ DENC   =    -17077.89199325
  -exchange      EXHF   =         0.00000000
  -V(xc)+E(xc)   XCENC  =      -720.79451392
  PAW double counting   =     46138.45347506  -111612.37425480
  entropy T*S    EENTRO =        -0.00548665
  eigenvalues    EBANDS =     -3449.39252449
  atomic energy  EATOM  =     49749.42546354
  ---------------------------------------------------
  free energy    TOTEN  =    -69270.30377339 eV

  energy without entropy =   -69270.29828674  energy(sigma->0) =   -69270.30103007
  exchange ACFDT corr.  =         0.00000000  see jH, gK, PRB 81, 115126


--------------------------------------------------------------------------------------------------------




--------------------------------------- Iteration      1(   3)  ---------------------------------------


    TRIAL :  cpu time      5.6241: real time      5.6265
    CORREC:  cpu time      0.0006: real time      0.0006
    --------------------------------------------
      LOOP:  cpu time      5.6700: real time      5.7142

 eigenvalue-minimisations  :  2944
 total energy-change (2. order) :-0.2037107E+03  (-0.2034660E+03)
 number of electron     588.0000000 magnetization       0.0000000      0.0000000      0.0000000
 augmentation part      588.0000000 magnetization       0.0000000      0.0000000      0.0000000

 Free energy of the ion-electron system (eV)
  ---------------------------------------------------
  alpha Z        PSCENC =      1642.45118531
  Ewald energy   TEWEN  =    -33940.17512420
  -Hartree energ DENC   =    -17077.89199325
  -exchange      EXHF   =         0.00000000
  -V(xc)+E(xc)   XCENC  =      -720.79451392
  PAW double counting   =     46138.45347506  -111612.37425480
  entropy T*S    EENTRO =        -0.00000000
  eigenvalues    EBANDS =     -3653.10869929
  atomic energy  EATOM  =     49749.42546354
  ---------------------------------------------------
  free energy    TOTEN  =    -69474.01446154 eV

  energy without entropy =   -69474.01446154  energy(sigma->0) =   -69474.01446154
  exchange ACFDT corr.  =         0.00000000  see jH, gK, PRB 81, 115126


--------------------------------------------------------------------------------------------------------




--------------------------------------- Iteration      1(   4)  ---------------------------------------


    TRIAL :  cpu time      8.1315: real time      8.1351
    CORREC:  cpu time      0.0006: real time      0.0006
    --------------------------------------------
      LOOP:  cpu time      8.1503: real time      8.1907

 eigenvalue-minimisations  :  3712
 total energy-change (2. order) :-0.5547367E+01  (-0.5545588E+01)
 number of electron     588.0000000 magnetization       0.0000000      0.0000000      0.0000000
 augmentation part      588.0000000 magnetization       0.0000000      0.0000000      0.0000000

 Free energy of the ion-electron system (eV)
  ---------------------------------------------------
  alpha Z        PSCENC =      1642.45118531
  Ewald energy   TEWEN  =    -33940.17512420
  -Hartree energ DENC   =    -17077.89199325
  -exchange      EXHF   =         0.00000000
  -V(xc)+E(xc)   XCENC  =      -720.79451392
  PAW double counting   =     46138.45347506  -111612.37425480
  entropy T*S    EENTRO =        -0.00000000
  eigenvalues    EBANDS =     -3658.65606610
  atomic energy  EATOM  =     49749.42546354
  ---------------------------------------------------
  free energy    TOTEN  =    -69479.56182835 eV

  energy without entropy =   -69479.56182835  energy(sigma->0) =   -69479.56182835
  exchange ACFDT corr.  =         0.00000000  see jH, gK, PRB 81, 115126


--------------------------------------------------------------------------------------------------------




--------------------------------------- Iteration      1(   5)  ---------------------------------------


    POTLOK:  cpu time      2.3535: real time      2.3545
    SETDIJ:  cpu time      1.8384: real time      1.8392
 -----------------------------------------------------------------------------
|                                                                             |
|     EEEEEEE  RRRRRR   RRRRRR   OOOOOOO  RRRRRR      ###     ###     ###     |
|     E        R     R  R     R  O     O  R     R     ###     ###     ###     |
|     E        R     R  R     R  O     O  R     R     ###     ###     ###     |
|     EEEEE    RRRRRR   RRRRRR   O     O  RRRRRR       #       #       #      |
|     E        R   R    R   R    O     O  R   R                               |
|     E        R    R   R    R   O     O  R    R      ###     ###     ###     |
|     EEEEEEE  R     R  R     R  OOOOOOO  R     R     ###     ###     ###     |
|                                                                             |
|     Error EDDDAV: Call to ZHEGV failed. Returncode = 127 1 128              |
|                                                                             |
|       ---->  I REFUSE TO CONTINUE WITH THIS SICK JOB ... BYE!!! <----       |
|                                                                             |
 -----------------------------------------------------------------------------

++++ Slurm JobID = 3945803

Lmod is automatically replacing "cce/15.0.0" with "gcc/11.2.0".


Lmod is automatically replacing "PrgEnv-cray/8.3.3" with "PrgEnv-gnu/8.3.3".


Lmod is automatically replacing "craype-network-ofi" with "craype-network-ucx".


Lmod is automatically replacing "cray-mpich/8.1.23" with
"cray-mpich-ucx/8.1.23".


Lmod is automatically replacing "craype-network-ucx" with "craype-network-ofi".


Inactive Modules:
  1) cray-mpich-ucx/8.1.23

	linux-vdso.so.1 (0x00007ffe278c8000)
	libstdc++.so.6 => /opt/cray/pe/gcc-libs/libstdc++.so.6 (0x0000147bc7ece000)
	libhdf5_fortran_parallel_gnu_91.so.200 => /opt/cray/pe/hdf5-parallel/1.12.2.1/gnu/9.1/lib/libhdf5_fortran_parallel_gnu_91.so.200 (0x0000147bc7c7b000)
	libdl.so.2 => /lib64/libdl.so.2 (0x0000147bc7a77000)
	libmpifort_gnu_91.so.12 => /opt/cray/pe/mpich/8.1.23/ofi/gnu/9.1/lib/libmpifort_gnu_91.so.12 (0x0000147bc77f3000)
	libfftw3_omp.so.mpi31.3 => /opt/cray/pe/fftw/3.3.10.3/x86_rome/lib/libfftw3_omp.so.mpi31.3 (0x0000147bc75ec000)
	libsci_gnu_82_mpi_mp.so.5 => /opt/cray/pe/libsci/22.12.1.1/GNU/9.1/x86_64/lib/libsci_gnu_82_mpi_mp.so.5 (0x0000147bc6e6d000)
	libsci_gnu_82_mp.so.5 => /opt/cray/pe/libsci/22.12.1.1/GNU/9.1/x86_64/lib/libsci_gnu_82_mp.so.5 (0x0000147bc36f9000)
	libxpmem.so.0 => /opt/cray/xpmem/default/lib64/libxpmem.so.0 (0x0000147bc84ee000)
	libgfortran.so.5 => /opt/cray/pe/gcc-libs/libgfortran.so.5 (0x0000147bc324d000)
	libquadmath.so.0 => /opt/cray/pe/gcc-libs/libquadmath.so.0 (0x0000147bc3006000)
	libpthread.so.0 => /lib64/libpthread.so.0 (0x0000147bc2de3000)
	libm.so.6 => /lib64/libm.so.6 (0x0000147bc2a98000)
	libmvec.so.1 => /lib64/libmvec.so.1 (0x0000147bc286d000)
	libgomp.so.1 => /opt/cray/pe/gcc-libs/libgomp.so.1 (0x0000147bc262a000)
	libgcc_s.so.1 => /opt/cray/pe/gcc-libs/libgcc_s.so.1 (0x0000147bc2411000)
	libc.so.6 => /lib64/libc.so.6 (0x0000147bc201c000)
	/lib64/ld-linux-x86-64.so.2 (0x0000147bc82e0000)
	libhdf5_parallel_gnu_91.so.200 => /opt/cray/pe/hdf5-parallel/1.12.2.1/gnu/9.1/lib/libhdf5_parallel_gnu_91.so.200 (0x0000147bc199f000)
	libmpi_gnu_91.so.12 => /opt/cray/pe/mpich/8.1.23/ofi/gnu/9.1/lib/libmpi_gnu_91.so.12 (0x0000147bbee1a000)
	libfabric.so.1 => /opt/cray/libfabric/1.12.1.2.2.0.0/lib64/libfabric.so.1 (0x0000147bbeb6a000)
	libatomic.so.1 => /opt/cray/pe/gcc-libs/libatomic.so.1 (0x0000147bbe962000)
	librt.so.1 => /lib64/librt.so.1 (0x0000147bbe759000)
	libpmi.so.0 => /opt/cray/pe/lib64/libpmi.so.0 (0x0000147bbe557000)
	libpmi2.so.0 => /opt/cray/pe/lib64/libpmi2.so.0 (0x0000147bbe31e000)
	libfftw3.so.mpi31.3 => /opt/cray/pe/fftw/3.3.10.3/x86_rome/lib/libfftw3.so.mpi31.3 (0x0000147bbde19000)
	libz.so.1 => /lib64/libz.so.1 (0x0000147bbdc02000)
	librdmacm.so.1 => /usr/lib64/librdmacm.so.1 (0x0000147bbd9e2000)
	libibverbs.so.1 => /usr/lib64/libibverbs.so.1 (0x0000147bbd7c2000)
	libpals.so.0 => /opt/cray/pe/lib64/libpals.so.0 (0x0000147bbd5bd000)
	libnl-3.so.200 => /usr/lib64/libnl-3.so.200 (0x0000147bbd39b000)
	libnl-route-3.so.200 => /usr/lib64/libnl-route-3.so.200 (0x0000147bbd125000)
rm: cannot remove 'WAVECAR': No such file or directory
 running 8192 mpi-ranks, with    1 threads/rank, on   64 nodes
 distrk:  each k-point on 4096 cores,    2 groups
 distr:  one band on   32 cores,  128 groups
 vasp.6.4.1 05Apr23 (build May 30 2023 08:55:05) complex                         
 POSCAR found type information on POSCAR CdTe
 POSCAR found :  2 types and      65 ions
 Reading from existing POTCAR
 scaLAPACK will be used
 Reading from existing POTCAR
 -----------------------------------------------------------------------------
|                                                                             |
|               ----> ADVICE to this user running VASP <----                  |
|                                                                             |
|     You have a (more or less) 'large supercell' and for larger cells it     |
|     might be more efficient to use real-space projection operators.         |
|     Therefore, try LREAL= Auto in the INCAR file.                           |
|     Mind: For very accurate calculation, you might also keep the            |
|     reciprocal projection scheme (i.e. LREAL=.FALSE.).                      |
|                                                                             |
 -----------------------------------------------------------------------------

 LDA part: xc-table for Pade appr. of Perdew
 POSCAR, INCAR and KPOINTS ok, starting setup
 FFT: planning ... GRIDC
 FFT: planning ... GRID_SOFT
 FFT: planning ... GRID
 WAVECAR not read
 entering main loop
       N       E                     dE             d eps       ncg     rms          ort
DAV:   1    -0.656328231938E+05   -0.65633E+05   -0.26127E+05  1280   0.146E+03
DAV:   2    -0.692703037734E+05   -0.36375E+04   -0.36216E+04  1280   0.350E+02
DAV:   3    -0.694740144615E+05   -0.20371E+03   -0.20347E+03  1280   0.801E+01
DAV:   4    -0.694795618284E+05   -0.55474E+01   -0.55456E+01  1280   0.114E+01
 -----------------------------------------------------------------------------
|                                                                             |
|     EEEEEEE  RRRRRR   RRRRRR   OOOOOOO  RRRRRR      ###     ###     ###     |
|     E        R     R  R     R  O     O  R     R     ###     ###     ###     |
|     E        R     R  R     R  O     O  R     R     ###     ###     ###     |
|     EEEEE    RRRRRR   RRRRRR   O     O  RRRRRR       #       #       #      |
|     E        R   R    R   R    O     O  R   R                               |
|     E        R    R   R    R   O     O  R    R      ###     ###     ###     |
|     EEEEEEE  R     R  R     R  OOOOOOO  R     R     ###     ###     ###     |
|                                                                             |
|     Error EDDDAV: Call to ZHEGV failed. Returncode = 127 1 128              |
|                                                                             |
|       ---->  I REFUSE TO CONTINUE WITH THIS SICK JOB ... BYE!!! <----       |
|                                                                             |
 -----------------------------------------------------------------------------

MPICH ERROR [Rank 2050] [job id 3945803.0] [Tue Jul 18 16:36:12 2023] [nid003332] - Abort(1) (rank 2050 in comm 0): application called MPI_Abort(MPI_COMM_WORLD, 1) - process 2050

aborting job:
application called MPI_Abort(MPI_COMM_WORLD, 1) - process 2050
MPICH ERROR [Rank 2137] [job id 3945803.0] [Tue Jul 18 16:36:12 2023] [nid003332] - Abort(1) (rank 2137 in comm 0): application called MPI_Abort(MPI_COMM_WORLD, 1) - process 2137

aborting job:
application called MPI_Abort(MPI_COMM_WORLD, 1) - process 2137
MPICH ERROR [Rank 1343] [job id 3945803.0] [Tue Jul 18 16:36:12 2023] [nid002666] - Abort(1) (rank 1343 in comm 0): application called MPI_Abort(MPI_COMM_WORLD, 1) - process 1343

aborting job:
application called MPI_Abort(MPI_COMM_WORLD, 1) - process 1343
MPICH ERROR [Rank 1469] [job id 3945803.0] [Tue Jul 18 16:36:12 2023] [nid002668] - Abort(1) (rank 1469 in comm 0): application called MPI_Abort(MPI_COMM_WORLD, 1) - process 1469

aborting job:
application called MPI_Abort(MPI_COMM_WORLD, 1) - process 1469
MPICH ERROR [Rank 1497] [job id 3945803.0] [Tue Jul 18 16:36:12 2023] [nid002668] - Abort(1) (rank 1497 in comm 0): application called MPI_Abort(MPI_COMM_WORLD, 1) - process 1497

aborting job:
application called MPI_Abort(MPI_COMM_WORLD, 1) - process 1497
MPICH ERROR [Rank 1283] [job id 3945803.0] [Tue Jul 18 16:36:12 2023] [nid002666] - Abort(1) (rank 1283 in comm 0): application called MPI_Abort(MPI_COMM_WORLD, 1) - process 1283

aborting job:
application called MPI_Abort(MPI_COMM_WORLD, 1) - process 1283
MPICH ERROR [Rank 1418] [job id 3945803.0] [Tue Jul 18 16:36:12 2023] [nid002668] - Abort(1) (rank 1418 in comm 0): application called MPI_Abort(MPI_COMM_WORLD, 1) - process 1418

aborting job:
application called MPI_Abort(MPI_COMM_WORLD, 1) - process 1418
MPICH ERROR [Rank 1341] [job id 3945803.0] [Tue Jul 18 16:36:12 2023] [nid002666] - Abort(1) (rank 1341 in comm 0): application called MPI_Abort(MPI_COMM_WORLD, 1) - process 1341

aborting job:
application called MPI_Abort(MPI_COMM_WORLD, 1) - process 1341
MPICH ERROR [Rank 1441] [job id 3945803.0] [Tue Jul 18 16:36:12 2023] [nid002668] - Abort(1) (rank 1441 in comm 0): application called MPI_Abort(MPI_COMM_WORLD, 1) - process 1441

aborting job:
application called MPI_Abort(MPI_COMM_WORLD, 1) - process 1441
MPICH ERROR [Rank 1342] [job id 3945803.0] [Tue Jul 18 16:36:12 2023] [nid002666] - Abort(1) (rank 1342 in comm 0): application called MPI_Abort(MPI_COMM_WORLD, 1) - process 1342

aborting job:
application called MPI_Abort(MPI_COMM_WORLD, 1) - process 1342
MPICH ERROR [Rank 1527] [job id 3945803.0] [Tue Jul 18 16:36:12 2023] [nid002668] - Abort(1) (rank 1527 in comm 0): application called MPI_Abort(MPI_COMM_WORLD, 1) - process 1527

aborting job:
application called MPI_Abort(MPI_COMM_WORLD, 1) - process 1527
MPICH ERROR [Rank 1465] [job id 3945803.0] [Tue Jul 18 16:36:12 2023] [nid002668] - Abort(1) (rank 1465 in comm 0): application called MPI_Abort(MPI_COMM_WORLD, 1) - process 1465

aborting job:
application called MPI_Abort(MPI_COMM_WORLD, 1) - process 1465
MPICH ERROR [Rank 1305] [job id 3945803.0] [Tue Jul 18 16:36:12 2023] [nid002666] - Abort(1) (rank 1305 in comm 0): application called MPI_Abort(MPI_COMM_WORLD, 1) - process 1305

aborting job:
application called MPI_Abort(MPI_COMM_WORLD, 1) - process 1305
MPICH ERROR [Rank 1410] [job id 3945803.0] [Tue Jul 18 16:36:12 2023] [nid002668] - Abort(1) (rank 1410 in comm 0): application called MPI_Abort(MPI_COMM_WORLD, 1) - process 1410

aborting job:
application called MPI_Abort(MPI_COMM_WORLD, 1) - process 1410
MPICH ERROR [Rank 3903] [job id 3945803.0] [Tue Jul 18 16:36:12 2023] [nid003721] - Abort(1) (rank 3903 in comm 0): application called MPI_Abort(MPI_COMM_WORLD, 1) - process 3903

aborting job:
application called MPI_Abort(MPI_COMM_WORLD, 1) - process 3903
MPICH ERROR [Rank 2367] [job id 3945803.0] [Tue Jul 18 16:36:12 2023] [nid003334] - Abort(1) (rank 2367 in comm 0): application called MPI_Abort(MPI_COMM_WORLD, 1) - process 2367

aborting job:
application called MPI_Abort(MPI_COMM_WORLD, 1) - process 2367
MPICH ERROR [Rank 1284] [job id 3945803.0] [Tue Jul 18 16:36:12 2023] [nid002666] - Abort(1) (rank 1284 in comm 0): application called MPI_Abort(MPI_COMM_WORLD, 1) - process 1284

aborting job:
application called MPI_Abort(MPI_COMM_WORLD, 1) - process 1284
MPICH ERROR [Rank 1411] [job id 3945803.0] [Tue Jul 18 16:36:12 2023] [nid002668] - Abort(1) (rank 1411 in comm 0): application called MPI_Abort(MPI_COMM_WORLD, 1) - process 1411

aborting job:
application called MPI_Abort(MPI_COMM_WORLD, 1) - process 1411
MPICH ERROR [Rank 3850] [job id 3945803.0] [Tue Jul 18 16:36:12 2023] [nid003721] - Abort(1) (rank 3850 in comm 0): application called MPI_Abort(MPI_COMM_WORLD, 1) - process 3850

aborting job:
application called MPI_Abort(MPI_COMM_WORLD, 1) - process 3850
MPICH ERROR [Rank 2314] [job id 3945803.0] [Tue Jul 18 16:36:12 2023] [nid003334] - Abort(1) (rank 2314 in comm 0): application called MPI_Abort(MPI_COMM_WORLD, 1) - process 2314

aborting job:
application called MPI_Abort(MPI_COMM_WORLD, 1) - process 2314
MPICH ERROR [Rank 1385] [job id 3945803.0] [Tue Jul 18 16:36:12 2023] [nid002666] - Abort(1) (rank 1385 in comm 0): application called MPI_Abort(MPI_COMM_WORLD, 1) - process 1385

aborting job:
application called MPI_Abort(MPI_COMM_WORLD, 1) - process 1385
MPICH ERROR [Rank 1414] [job id 3945803.0] [Tue Jul 18 16:36:12 2023] [nid002668] - Abort(1) (rank 1414 in comm 0): application called MPI_Abort(MPI_COMM_WORLD, 1) - process 1414

aborting job:
application called MPI_Abort(MPI_COMM_WORLD, 1) - process 1414
MPICH ERROR [Rank 3871] [job id 3945803.0] [Tue Jul 18 16:36:12 2023] [nid003721] - Abort(1) (rank 3871 in comm 0): application called MPI_Abort(MPI_COMM_WORLD, 1) - process 3871

aborting job:
application called MPI_Abort(MPI_COMM_WORLD, 1) - process 3871
MPICH ERROR [Rank 2947] [job id 3945803.0] [Tue Jul 18 16:36:12 2023] [nid003343] - Abort(1) (rank 2947 in comm 0): application called MPI_Abort(MPI_COMM_WORLD, 1) - process 2947

aborting job:
application called MPI_Abort(MPI_COMM_WORLD, 1) - process 2947
MPICH ERROR [Rank 1487] [job id 3945803.0] [Tue Jul 18 16:36:12 2023] [nid002668] - Abort(1) (rank 1487 in comm 0): application called MPI_Abort(MPI_COMM_WORLD, 1) - process 1487

aborting job:
application called MPI_Abort(MPI_COMM_WORLD, 1) - process 1487
MPICH ERROR [Rank 3887] [job id 3945803.0] [Tue Jul 18 16:36:12 2023] [nid003721] - Abort(1) (rank 3887 in comm 0): application called MPI_Abort(MPI_COMM_WORLD, 1) - process 3887

aborting job:
application called MPI_Abort(MPI_COMM_WORLD, 1) - process 3887
MPICH ERROR [Rank 2361] [job id 3945803.0] [Tue Jul 18 16:36:12 2023] [nid003334] - Abort(1) (rank 2361 in comm 0): application called MPI_Abort(MPI_COMM_WORLD, 1) - process 2361

aborting job:
application called MPI_Abort(MPI_COMM_WORLD, 1) - process 2361
MPICH ERROR [Rank 2058] [job id 3945803.0] [Tue Jul 18 16:36:12 2023] [nid003332] - Abort(1) (rank 2058 in comm 0): application called MPI_Abort(MPI_COMM_WORLD, 1) - process 2058

aborting job:
application called MPI_Abort(MPI_COMM_WORLD, 1) - process 2058
MPICH ERROR [Rank 2954] [job id 3945803.0] [Tue Jul 18 16:36:12 2023] [nid003343] - Abort(1) (rank 2954 in comm 0): application called MPI_Abort(MPI_COMM_WORLD, 1) - process 2954

aborting job:
application called MPI_Abort(MPI_COMM_WORLD, 1) - process 2954
MPICH ERROR [Rank 1282] [job id 3945803.0] [Tue Jul 18 16:36:12 2023] [nid002666] - Abort(1) (rank 1282 in comm 0): application called MPI_Abort(MPI_COMM_WORLD, 1) - process 1282

aborting job:
application called MPI_Abort(MPI_COMM_WORLD, 1) - process 1282
MPICH ERROR [Rank 1412] [job id 3945803.0] [Tue Jul 18 16:36:12 2023] [nid002668] - Abort(1) (rank 1412 in comm 0): application called MPI_Abort(MPI_COMM_WORLD, 1) - process 1412

aborting job:
application called MPI_Abort(MPI_COMM_WORLD, 1) - process 1412
MPICH ERROR [Rank 3919] [job id 3945803.0] [Tue Jul 18 16:36:12 2023] [nid003721] - Abort(1) (rank 3919 in comm 0): application called MPI_Abort(MPI_COMM_WORLD, 1) - process 3919

aborting job:
application called MPI_Abort(MPI_COMM_WORLD, 1) - process 3919
MPICH ERROR [Rank 3447] [job id 3945803.0] [Tue Jul 18 16:36:12 2023] [nid003715] - Abort(1) (rank 3447 in comm 0): application called MPI_Abort(MPI_COMM_WORLD, 1) - process 3447

aborting job:
application called MPI_Abort(MPI_COMM_WORLD, 1) - process 3447
MPICH ERROR [Rank 2105] [job id 3945803.0] [Tue Jul 18 16:36:12 2023] [nid003332] - Abort(1) (rank 2105 in comm 0): application called MPI_Abort(MPI_COMM_WORLD, 1) - process 2105

aborting job:
application called MPI_Abort(MPI_COMM_WORLD, 1) - process 2105
MPICH ERROR [Rank 1359] [job id 3945803.0] [Tue Jul 18 16:36:12 2023] [nid002666] - Abort(1) (rank 1359 in comm 0): application called MPI_Abort(MPI_COMM_WORLD, 1) - process 1359

MPICH ERROR [Rank 3865] [job id 3945803.0] [Tue Jul 18 16:36:12 2023] [nid003721] - Abort(1) (rank 3865 in comm 0): application called MPI_Abort(MPI_COMM_WORLD, 1) - process 3865

aborting job:
application called MPI_Abort(MPI_COMM_WORLD, 1) - process 3865
MPICH ERROR [Rank 3332] [job id 3945803.0] [Tue Jul 18 16:36:12 2023] [nid003715] - Abort(1) (rank 3332 in comm 0): application called MPI_Abort(MPI_COMM_WORLD, 1) - process 3332

aborting job:
application called MPI_Abort(MPI_COMM_WORLD, 1) - process 3332
MPICH ERROR [Rank 2365] [job id 3945803.0] [Tue Jul 18 16:36:12 2023] [nid003334] - Abort(1) (rank 2365 in comm 0): application called MPI_Abort(MPI_COMM_WORLD, 1) - process 2365

aborting job:
application called MPI_Abort(MPI_COMM_WORLD, 1) - process 2365
MPICH ERROR [Rank 2946] [job id 3945803.0] [Tue Jul 18 16:36:12 2023] [nid003343] - Abort(1) (rank 2946 in comm 0): application called MPI_Abort(MPI_COMM_WORLD, 1) - process 2946

aborting job:
application called MPI_Abort(MPI_COMM_WORLD, 1) - process 2946
MPICH ERROR [Rank 3910] [job id 3945803.0] [Tue Jul 18 16:36:12 2023] [nid003721] - Abort(1) (rank 3910 in comm 0): application called MPI_Abort(MPI_COMM_WORLD, 1) - process 3910

aborting job:
application called MPI_Abort(MPI_COMM_WORLD, 1) - process 3910
MPICH ERROR [Rank 2671] [job id 3945803.0] [Tue Jul 18 16:36:12 2023] [nid003338] - Abort(1) (rank 2671 in comm 0): application called MPI_Abort(MPI_COMM_WORLD, 1) - process 2671

aborting job:
application called MPI_Abort(MPI_COMM_WORLD, 1) - process 2671
MPICH ERROR [Rank 2951] [job id 3945803.0] [Tue Jul 18 16:36:12 2023] [nid003343] - Abort(1) (rank 2951 in comm 0): application called MPI_Abort(MPI_COMM_WORLD, 1) - process 2951

aborting job:
application called MPI_Abort(MPI_COMM_WORLD, 1) - process 2951
aborting job:
application called MPI_Abort(MPI_COMM_WORLD, 1) - process 1359
MPICH ERROR [Rank 3907] [job id 3945803.0] [Tue Jul 18 16:36:12 2023] [nid003721] - Abort(1) (rank 3907 in comm 0): application called MPI_Abort(MPI_COMM_WORLD, 1) - process 3907

aborting job:
application called MPI_Abort(MPI_COMM_WORLD, 1) - process 3907
MPICH ERROR [Rank 3334] [job id 3945803.0] [Tue Jul 18 16:36:12 2023] [nid003715] - Abort(1) (rank 3334 in comm 0): application called MPI_Abort(MPI_COMM_WORLD, 1) - process 3334

aborting job:
application called MPI_Abort(MPI_COMM_WORLD, 1) - process 3334
MPICH ERROR [Rank 2366] [job id 3945803.0] [Tue Jul 18 16:36:12 2023] [nid003334] - Abort(1) (rank 2366 in comm 0): application called MPI_Abort(MPI_COMM_WORLD, 1) - process 2366

aborting job:
application called MPI_Abort(MPI_COMM_WORLD, 1) - process 2366
MPICH ERROR [Rank 2634] [job id 3945803.0] [Tue Jul 18 16:36:12 2023] [nid003338] - Abort(1) (rank 2634 in comm 0): application called MPI_Abort(MPI_COMM_WORLD, 1) - process 2634

aborting job:
application called MPI_Abort(MPI_COMM_WORLD, 1) - process 2634
MPICH ERROR [Rank 2237] [job id 3945803.0] [Tue Jul 18 16:36:12 2023] [nid003333] - Abort(1) (rank 2237 in comm 0): application called MPI_Abort(MPI_COMM_WORLD, 1) - process 2237

aborting job:
application called MPI_Abort(MPI_COMM_WORLD, 1) - process 2237
MPICH ERROR [Rank 1795] [job id 3945803.0] [Tue Jul 18 16:36:12 2023] [nid002683] - Abort(1) (rank 1795 in comm 0): application called MPI_Abort(MPI_COMM_WORLD, 1) - process 1795

aborting job:
application called MPI_Abort(MPI_COMM_WORLD, 1) - process 1795
MPICH ERROR [Rank 1290] [job id 3945803.0] [Tue Jul 18 16:36:12 2023] [nid002666] - Abort(1) (rank 1290 in comm 0): application called MPI_Abort(MPI_COMM_WORLD, 1) - process 1290

aborting job:
application called MPI_Abort(MPI_COMM_WORLD, 1) - process 1290
MPICH ERROR [Rank 3935] [job id 3945803.0] [Tue Jul 18 16:36:12 2023] [nid003721] - Abort(1) (rank 3935 in comm 0): application called MPI_Abort(MPI_COMM_WORLD, 1) - process 3935

aborting job:
application called MPI_Abort(MPI_COMM_WORLD, 1) - process 3935
MPICH ERROR [Rank 3338] [job id 3945803.0] [Tue Jul 18 16:36:12 2023] [nid003715] - Abort(1) (rank 3338 in comm 0): application called MPI_Abort(MPI_COMM_WORLD, 1) - process 3338

aborting job:
application called MPI_Abort(MPI_COMM_WORLD, 1) - process 3338
MPICH ERROR [Rank 2308] [job id 3945803.0] [Tue Jul 18 16:36:12 2023] [nid003334] - Abort(1) (rank 2308 in comm 0): application called MPI_Abort(MPI_COMM_WORLD, 1) - process 2308

aborting job:
application called MPI_Abort(MPI_COMM_WORLD, 1) - process 2308
MPICH ERROR [Rank 2969] [job id 3945803.0] [Tue Jul 18 16:36:12 2023] [nid003343] - Abort(1) (rank 2969 in comm 0): application called MPI_Abort(MPI_COMM_WORLD, 1) - process 2969

aborting job:
application called MPI_Abort(MPI_COMM_WORLD, 1) - process 2969
MPICH ERROR [Rank 2239] [job id 3945803.0] [Tue Jul 18 16:36:12 2023] [nid003333] - Abort(1) (rank 2239 in comm 0): application called MPI_Abort(MPI_COMM_WORLD, 1) - process 2239

aborting job:
application called MPI_Abort(MPI_COMM_WORLD, 1) - process 2239
MPICH ERROR [Rank 1794] [job id 3945803.0] [Tue Jul 18 16:36:12 2023] [nid002683] - Abort(1) (rank 1794 in comm 0): application called MPI_Abort(MPI_COMM_WORLD, 1) - process 1794

aborting job:
application called MPI_Abort(MPI_COMM_WORLD, 1) - process 1794
MPICH ERROR [Rank 3943] [job id 3945803.0] [Tue Jul 18 16:36:12 2023] [nid003721] - Abort(1) (rank 3943 in comm 0): application called MPI_Abort(MPI_COMM_WORLD, 1) - process 3943

aborting job:
application called MPI_Abort(MPI_COMM_WORLD, 1) - process 3943
MPICH ERROR [Rank 3375] [job id 3945803.0] [Tue Jul 18 16:36:12 2023] [nid003715] - Abort(1) (rank 3375 in comm 0): application called MPI_Abort(MPI_COMM_WORLD, 1) - process 3375

aborting job:
application called MPI_Abort(MPI_COMM_WORLD, 1) - process 3375
MPICH ERROR [Rank 2383] [job id 3945803.0] [Tue Jul 18 16:36:12 2023] [nid003334] - Abort(1) (rank 2383 in comm 0): application called MPI_Abort(MPI_COMM_WORLD, 1) - process 2383

aborting job:
application called MPI_Abort(MPI_COMM_WORLD, 1) - process 2383
MPICH ERROR [Rank 2639] [job id 3945803.0] [Tue Jul 18 16:36:12 2023] [nid003338] - Abort(1) (rank 2639 in comm 0): application called MPI_Abort(MPI_COMM_WORLD, 1) - process 2639

aborting job:
application called MPI_Abort(MPI_COMM_WORLD, 1) - process 2639
MPICH ERROR [Rank 3837] [job id 3945803.0] [Tue Jul 18 16:36:12 2023] [nid003720] - Abort(1) (rank 3837 in comm 0): application called MPI_Abort(MPI_COMM_WORLD, 1) - process 3837

aborting job:
application called MPI_Abort(MPI_COMM_WORLD, 1) - process 3837
MPICH ERROR [Rank 2977] [job id 3945803.0] [Tue Jul 18 16:36:12 2023] [nid003343] - Abort(1) (rank 2977 in comm 0): application called MPI_Abort(MPI_COMM_WORLD, 1) - process 2977

aborting job:
application called MPI_Abort(MPI_COMM_WORLD, 1) - process 2977
MPICH ERROR [Rank 2265] [job id 3945803.0] [Tue Jul 18 16:36:12 2023] [nid003333] - Abort(1) (rank 2265 in comm 0): application called MPI_Abort(MPI_COMM_WORLD, 1) - process 2265

aborting job:
application called MPI_Abort(MPI_COMM_WORLD, 1) - process 2265
MPICH ERROR [Rank 3885] [job id 3945803.0] [Tue Jul 18 16:36:12 2023] [nid003721] - Abort(1) (rank 3885 in comm 0): application called MPI_Abort(MPI_COMM_WORLD, 1) - process 3885

aborting job:
application called MPI_Abort(MPI_COMM_WORLD, 1) - process 3885
MPICH ERROR [Rank 3454] [job id 3945803.0] [Tue Jul 18 16:36:12 2023] [nid003715] - Abort(1) (rank 3454 in comm 0): application called MPI_Abort(MPI_COMM_WORLD, 1) - process 3454

aborting job:
application called MPI_Abort(MPI_COMM_WORLD, 1) - process 3454
MPICH ERROR [Rank 2562] [job id 3945803.0] [Tue Jul 18 16:36:12 2023] [nid003338] - Abort(1) (rank 2562 in comm 0): application called MPI_Abort(MPI_COMM_WORLD, 1) - process 2562

aborting job:
application called MPI_Abort(MPI_COMM_WORLD, 1) - process 2562
MPICH ERROR [Rank 3723] [job id 3945803.0] [Tue Jul 18 16:36:12 2023] [nid003720] - Abort(1) (rank 3723 in comm 0): application called MPI_Abort(MPI_COMM_WORLD, 1) - process 3723

aborting job:
application called MPI_Abort(MPI_COMM_WORLD, 1) - process 3723
MPICH ERROR [Rank 2991] [job id 3945803.0] [Tue Jul 18 16:36:12 2023] [nid003343] - Abort(1) (rank 2991 in comm 0): application called MPI_Abort(MPI_COMM_WORLD, 1) - process 2991

aborting job:
application called MPI_Abort(MPI_COMM_WORLD, 1) - process 2991
MPICH ERROR [Rank 1802] [job id 3945803.0] [Tue Jul 18 16:36:12 2023] [nid002683] - Abort(1) (rank 1802 in comm 0): application called MPI_Abort(MPI_COMM_WORLD, 1) - process 1802

aborting job:
application called MPI_Abort(MPI_COMM_WORLD, 1) - process 1802
MPICH ERROR [Rank 3844] [job id 3945803.0] [Tue Jul 18 16:36:12 2023] [nid003721] - Abort(1) (rank 3844 in comm 0): application called MPI_Abort(MPI_COMM_WORLD, 1) - process 3844

aborting job:
application called MPI_Abort(MPI_COMM_WORLD, 1) - process 3844
MPICH ERROR [Rank 3365] [job id 3945803.0] [Tue Jul 18 16:36:12 2023] [nid003715] - Abort(1) (rank 3365 in comm 0): application called MPI_Abort(MPI_COMM_WORLD, 1) - process 3365

aborting job:
application called MPI_Abort(MPI_COMM_WORLD, 1) - process 3365
MPICH ERROR [Rank 2563] [job id 3945803.0] [Tue Jul 18 16:36:12 2023] [nid003338] - Abort(1) (rank 2563 in comm 0): application called MPI_Abort(MPI_COMM_WORLD, 1) - process 2563

aborting job:
application called MPI_Abort(MPI_COMM_WORLD, 1) - process 2563
MPICH ERROR [Rank 2948] [job id 3945803.0] [Tue Jul 18 16:36:12 2023] [nid003343] - Abort(1) (rank 2948 in comm 0): application called MPI_Abort(MPI_COMM_WORLD, 1) - process 2948

aborting job:
application called MPI_Abort(MPI_COMM_WORLD, 1) - process 2948
MPICH ERROR [Rank 3466] [job id 3945803.0] [Tue Jul 18 16:36:12 2023] [nid003716] - Abort(1) (rank 3466 in comm 0): application called MPI_Abort(MPI_COMM_WORLD, 1) - process 3466

aborting job:
application called MPI_Abort(MPI_COMM_WORLD, 1) - process 3466
MPICH ERROR [Rank 1154] [job id 3945803.0] [Tue Jul 18 16:36:12 2023] [nid002506] - Abort(1) (rank 1154 in comm 0): application called MPI_Abort(MPI_COMM_WORLD, 1) - process 1154

aborting job:
application called MPI_Abort(MPI_COMM_WORLD, 1) - process 1154
MPICH ERROR [Rank 3945] [job id 3945803.0] [Tue Jul 18 16:36:12 2023] [nid003721] - Abort(1) (rank 3945 in comm 0): application called MPI_Abort(MPI_COMM_WORLD, 1) - process 3945

aborting job:
application called MPI_Abort(MPI_COMM_WORLD, 1) - process 3945
[...]
srun: error: nid005122: tasks 5767,5774: Terminated
srun: error: nid005241: tasks 7426-7428,7430,7434,7459,7471,7481,7485-7487,7503,7513,7519,7535,7543,7550: Exited with exit code 255
srun: error: nid002457: task 779: Terminated
srun: error: nid005227: tasks 6786-6788,6794,6809,6817,6819,6841,6845-6847,6851-6852,6873,6895,6903: Exited with exit code 255
srun: error: nid005227: task 6879: Terminated
srun: error: nid002458: task 909: Terminated
srun: error: nid005120: tasks 5644-5645: Terminated
srun: error: nid003342: tasks 2818-2820,2826,2841,2851,2853,2873,2877-2879,2890,2895,2905,2911,2921,2927,2937: Exited with exit code 255
srun: error: nid003342: task 2827: Terminated
srun: error: nid002678: tasks 1543,1551: Terminated
srun: error: nid002117: tasks 385,389,396,399,459: Terminated
srun: error: nid002117: tasks 386-388,394,421,441,445-447,473,489,495,503: Exited with exit code 255
srun: error: nid003338: tasks 2572-2573: Terminated
srun: error: nid002459: tasks 1028,1034: Terminated
srun: error: nid004082: tasks 4737,4744,4746,4749: Terminated
srun: error: nid002092: task 182: Terminated
srun: error: nid001639: tasks 20,23,62: Terminated
srun: error: nid003735: tasks 4101,4103,4115,4120-4121,4150: Terminated
srun: error: nid004072: tasks 4229,4233: Terminated
srun: error: nid003721: tasks 3840-3841,3848-3849,3851-3856,3858-3864,3866-3870,3872-3874,3876,3878-3884,3886,3888-3895,3898-3900,3904-3906,3909,3911-3912,3915-3918,3920-3924,3926,3928,3930-3934,3936-3942,3944,3946-3950,3952-3958,3960,3962-3963,3965: Terminated
srun: error: nid003721: tasks 3842-3847,3850,3865,3871,3875,3877,3885,3887,3897,3901-3903,3907-3908,3910,3914,3919,3927,3929,3935,3943,3945,3951,3959,3961,3966-3967: Exited with exit code 255
srun: error: nid003720: tasks 3712-3713,3717,3720-3721,3724-3728,3730,3732-3736,3738-3744,3746,3748,3750-3758,3760-3768,3770,3772,3776-3778,3781-3784,3787-3789,3792-3794,3796-3798,3800,3802,3804-3805,3808-3813,3815-3816,3818-3822,3824-3830,3832-3836,3838-3839: Terminated
srun: error: nid003720: tasks 3714-3716,3718-3719,3722-3723,3731,3737,3745,3747,3749,3759,3769,3773-3775,3779-3780,3785-3786,3791,3799,3801,3806-3807,3817,3823,3831,3837: Exited with exit code 255
srun: error: nid003721: task 3913: Terminated
srun: error: nid003720: tasks 3795,3803,3814: Terminated
srun: error: nid003343: tasks 2944-2945,2949,2952-2953,2955-2960,2962-2968,2970-2976,2978,2980,2982-2990,2992-3000,3003-3004,3008-3010,3012-3015,3017-3022,3024-3025,3027-3032,3034-3038,3040-3048,3050-3054,3056-3062,3064-3071: Terminated
srun: error: nid003343: tasks 2946-2948,2950-2951,2954,2969,2977,2979,2981,2991,3001,3005-3007,3011,3023,3033,3039,3049,3055,3063: Exited with exit code 255
srun: error: nid003340: tasks 2688-2689,2693-2697,2699-2704,2706,2708-2712,2714-2720,2722,2724,2726-2744,2746-2748,2752-2754,2757-2776,2778-2792,2794-2798,2800-2806,2808,2810,2812-2815: Terminated
srun: error: nid003340: tasks 2690-2692,2698,2707,2713,2721,2723,2725,2745,2749-2751,2755-2756,2777,2793,2799,2807,2809: Exited with exit code 255
srun: error: nid003689: tasks 3200-3201,3205,3207-3209,3212-3216,3218-3224,3226-3236,3238-3256,3258-3260,3264-3268,3270-3272,3274-3288,3290-3305,3307-3310,3312-3318,3320,3322-3324,3326-3327: Terminated
srun: error: nid003689: tasks 3202-3204,3206,3210-3211,3225,3237,3257,3261-3263,3273,3289,3311,3319,3321,3325: Exited with exit code 255
srun: error: nid005299: tasks 7936-7937,7943-7945,7947-7951,7953-7966,7968-7970,7972-7980,7982,7984-7992,7994-7996,8000-8002,8005,8007-8014,8016-8022,8024,8026-8030,8032-8038,8040-8046,8048-8054,8056-8057,8059-8061: Terminated
srun: error: nid005299: tasks 7938-7942,7946,7967,7971,7981,7983,7993,7997-7999,8003-8004,8006,8015,8023,8025,8031,8039,8047,8055,8062-8063: Exited with exit code 255
srun: error: nid005295: tasks 7808-7809,7813,7815-7817,7819-7824,7826-7832,7834-7840,7842,7844-7854,7856-7864,7866-7868,7872-7874,7877-7886,7888-7894,7896,7898-7901,7904-7918,7920-7924,7926,7928-7935: Terminated
srun: error: nid005295: tasks 7810-7812,7814,7818,7833,7841,7843,7855,7865,7869-7871,7875-7876,7887,7895,7897,7902-7903,7919,7927: Exited with exit code 255
srun: error: nid003337: tasks 2432-2433,2437,2439-2441,2443-2448,2450-2456,2458-2464,2466,2468,2470-2478,2480-2488,2490,2492,2496-2510,2512-2520,2522-2526,2528-2536,2538-2542,2544-2550,2552-2556,2558-2559: Terminated
srun: error: nid003337: tasks 2434-2436,2438,2442,2457,2465,2467,2469,2479,2489,2493-2495,2511,2521,2527,2537,2543,2551: Exited with exit code 255
srun: error: nid002458: tasks 896,901-905,907-908,910-912,914-932,934-952,954-956,960-989,991-1000,1002-1006,1008-1011,1013-1014,1016-1023: Terminated
srun: error: nid005229: tasks 7040-7041,7045,7047-7049,7051-7056,7058-7072,7074,7076,7078-7086,7088-7096,7098-7100,7104-7106,7108-7118,7120-7134,7136-7144,7146-7150,7152,7154-7158,7160-7167: Terminated
srun: error: nid002686: tasks 1920-1921,1925,1927-1929,1931-1936,1938-1944,1946-1952,1954,1956,1958-1966,1968-1976,1978-1980,1984-1986,1988-1998,2000-2005,2007-2008,2010-2014,2016-2024,2026-2030,2032-2038,2040-2047: Terminated
srun: error: nid005229: tasks 7042-7044,7046,7050,7073,7075,7077,7087,7097,7101-7103,7107,7119,7135,7145,7151,7159: Exited with exit code 255
srun: error: nid002682: tasks 1664-1665,1669-1673,1676-1680,1682,1684-1688,1690-1698,1700,1702-1720,1722-1724,1728,1730-1752,1754-1758,1760-1768,1770-1774,1776-1782,1784-1791: Terminated
srun: error: nid002686: tasks 1922-1924,1926,1930,1945,1953,1955,1957,1967,1977,1981-1983,1987,1999,2009,2015,2025,2031,2039: Exited with exit code 255
srun: error: nid002682: tasks 1666-1668,1674-1675,1683,1689,1699,1701,1721,1725-1727,1753,1759,1769,1775,1783: Exited with exit code 255
srun: error: nid003715: tasks 3328-3329,3333,3335-3337,3339-3343,3345-3352,3354-3357,3359-3362,3364,3366-3374,3376-3384,3386-3388,3392-3406,3408-3416,3418-3420,3422,3424-3432,3434-3438,3440-3446,3448,3450-3453,3455: Terminated
srun: error: nid003715: tasks 3330-3332,3334,3338,3353,3363,3365,3375,3385,3389-3391,3407,3417,3423,3433,3439,3447,3449,3454: Exited with exit code 255
srun: error: nid003342: tasks 2816-2817,2821-2825,2828-2832,2834-2840,2842-2850,2852,2854-2872,2874-2876,2880-2889,2891-2894,2896-2904,2906-2910,2912-2920,2922-2926,2928-2936,2938-2940,2942-2943: Terminated
srun: error: nid002666: tasks 1280-1281,1285-1289,1291-1295,1297-1304,1306-1314,1316,1318-1336,1338-1340,1344-1358,1360-1368,1370-1374,1376-1384,1386,1388-1390,1392-1400,1402-1407: Terminated
srun: error: nid002666: tasks 1282-1284,1290,1305,1315,1317,1337,1341-1343,1359,1369,1375,1385,1391,1401: Exited with exit code 255
srun: error: nid004085: tasks 4992-4993,4997,4999-5001,5003-5008,5010-5024,5026,5028,5030-5038,5040-5048,5050-5052,5056-5058,5060-5070,5072-5086,5088-5090,5092-5096,5098-5102,5104-5110,5112-5119: Terminated
srun: error: nid004085: tasks 4994-4996,4998,5002,5025,5027,5029,5039,5049,5053-5055,5059,5071,5087,5097,5103,5111: Exited with exit code 255
srun: error: nid003716: tasks 3456-3457,3461,3463-3465,3468-3473,3475-3480,3482-3488,3490,3492,3494-3502,3504-3512,3514-3516,3520-3534,3536-3544,3546-3550,3552-3557,3559-3560,3562-3566,3568-3574,3576-3583: Terminated
srun: error: nid003716: tasks 3458-3460,3462,3466-3467,3481,3489,3491,3493,3503,3513,3517-3519,3535,3545,3551,3561,3567,3575: Exited with exit code 255
srun: error: nid003343: task 3026: Terminated
srun: error: nid005227: tasks 6784-6785,6789-6793,6795-6808,6810-6813,6815-6816,6818,6820-6840,6842-6844,6848-6850,6853-6872,6874-6878,6880-6894,6896-6898,6900-6902,6904-6911: Terminated
srun: error: nid005131: tasks 5888-5889,5893-5897,5899-5900,5902-5904,5906-5922,5924-5944,5946-5948,5952-5965,5968-5976,5978-5982,5984-5998,6000-6015: Terminated
srun: error: nid005138: tasks 6016-6017,6023,6028-6029,6033-6040,6042-6046,6048,6050,6052,6054-6062,6064-6070,6072,6074-6076,6080-6082,6084-6094,6096-6104,6106-6110,6112-6117,6119-6120,6122-6126,6128-6134,6136-6143: Terminated
srun: error: nid002683: tasks 1792-1793,1797-1798,1800-1801,1803-1816,1818-1826,1828,1830-1848,1851-1852,1856-1870,1872-1880,1882-1886,1888-1896,1898-1902,1904,1906-1912,1914-1919: Terminated
srun: error: nid005138: tasks 6018-6022,6024-6027,6030-6031,6041,6047,6049,6051,6053,6063,6071,6073,6077-6079,6083,6095,6105,6111,6121,6127,6135: Exited with exit code 255
srun: error: nid002683: tasks 1794-1796,1799,1802,1817,1827,1829,1849,1853-1855,1871,1881,1887,1897,1903,1913: Exited with exit code 255
srun: error: nid002668: tasks 1408-1409,1413,1415-1417,1419-1440,1442,1444,1446-1454,1456-1464,1466,1468,1472-1486,1488-1496,1498-1502,1504-1512,1514-1518,1520-1523,1525-1526,1528-1535: Terminated
srun: error: nid003338: tasks 2560-2561,2565-2569,2571,2574-2576,2578-2616,2618-2620,2624-2633,2635-2638,2640-2648,2650-2664,2666-2670,2672-2687: Terminated
srun: error: nid005234: tasks 7296-7297,7301,7303-7305,7307-7320,7322-7332,7334-7353,7355-7356,7360-7384,7386-7388,7390-7406,7408-7414,7416-7423: Terminated
srun: error: nid002668: tasks 1410-1412,1414,1418,1441,1443,1445,1455,1465,1469-1471,1487,1497,1503,1513,1519,1527: Exited with exit code 255
srun: error: nid002506: tasks 1152-1153,1157-1161,1163-1167,1169-1176,1178-1188,1190-1208,1210-1212,1216-1240,1242-1262,1264-1269,1272-1279: Terminated
srun: error: nid003723: tasks 3968-3969,3980-3981,3985-3986,3988,3990-3992,3994-3998,4000,4002,4004,4006-4008,4010-4014,4017-4022,4024,4026,4028,4032-4047,4049-4064,4066-4095: Terminated
srun: error: nid003723: tasks 3970-3979,3982-3983,3987,3989,3993,4001,4003,4005,4009,4015-4016,4023,4025,4029-4031: Exited with exit code 255
srun: error: nid005225: tasks 6528-6530,6533,6535-6560,6562,6564-6574,6576-6588,6592-6606,6608-6618,6620-6622,6624-6638,6640-6646,6648-6655: Terminated
srun: error: nid005241: tasks 7424-7425,7429,7431-7433,7435-7440,7442-7458,7460-7470,7472-7480,7482-7484,7489-7502,7504-7512,7514-7518,7520-7534,7536-7542,7544-7549,7551: Terminated
srun: error: nid002455: tasks 640-641,645-648,651-654,656-664,666-696,698-700,704-728,730-733,735-750,752,754-758,760-767: Terminated
srun: error: nid002458: task 990: Terminated
srun: error: nid005228: tasks 6912-6913,6917-6921,6923-6928,6930-6946,6948-6968,6970-6972,6976-6985,6987-6990,6992-7000,7002-7006,7008-7022,7024-7039: Terminated
srun: error: nid005122: tasks 5760-5761,5765-5766,5768-5769,5771-5773,5775-5784,5786-5794,5796-5804,5806-5816,5818-5820,5824-5838,5840-5848,5850-5854,5856-5870,5872-5878,5880-5887: Terminated
srun: error: nid003715: task 3358: Terminated
srun: error: nid003717: tasks 3584-3585,3587-3593,3595-3608,3610-3625,3627-3630,3633-3640,3642-3644,3648-3650,3654-3657,3659-3672,3674-3694,3696-3704,3706-3709,3711: Terminated
srun: error: nid004084: tasks 4864-4865,4869-4873,4875-4898,4900-4909,4911-4916,4918-4920,4922-4924,4928-4938,4940-4942,4944-4952,4954-4958,4960-4974,4976-4991: Terminated
srun: error: nid003332: tasks 2048-2049,2051-2054,2056-2057,2059-2063,2065-2104,2106-2108,2110-2136,2138-2144,2146-2175: Terminated
srun: error: nid003721: task 3925: Terminated
srun: error: nid004640: tasks 5376-5377,5381-5385,5388-5392,5394-5410,5412-5432,5434-5436,5440-5454,5456-5464,5466-5470,5472-5486,5488,5490-5503: Terminated
srun: error: nid005242: tasks 7552-7554,7557,7559-7562,7564-7568,7570-7584,7586,7588-7598,7600-7613,7616-7630,7632-7638,7640-7646,7648-7662,7664-7670,7672-7679: Terminated
srun: error: nid005302: tasks 8064-8065,8076-8077,8081-8084,8086-8088,8090-8094,8096,8098,8100,8102-8110,8112-8118,8120,8122-8124,8128-8188,8190-8191: Terminated
srun: error: nid003424: tasks 3072-3074,3077-3133,3135-3153,3155-3199: Terminated
srun: error: nid004082: tasks 4736,4738,4741-4743,4745,4747-4748,4750-4752,4754-4797,4800-4846,4848-4851,4853-4854,4856-4863: Terminated
srun: error: nid005302: tasks 8066-8075,8078-8079,8085,8089,8095,8097,8099,8101,8111,8119,8121,8125-8127: Exited with exit code 255
srun: error: nid003337: task 2491: Terminated
srun: error: nid003720: tasks 3771,3790: Terminated
srun: error: nid002117: tasks 384,390-393,395,397-398,400,402-420,422-440,442-444,448-458,460-466,468-472,474-488,490-494,496-502,504-511: Terminated
srun: error: nid003333: tasks 2176-2177,2181-2185,2187-2189,2192,2194-2232,2234-2236,2240-2261,2263-2264,2266-2286,2288-2294,2296-2303: Terminated
srun: error: nid003689: task 3306: Terminated
srun: error: nid002678: tasks 1536-1537,1539-1542,1544,1547,1550,1552-1560,1562-1592,1594-1596,1598-1609,1611-1624,1626-1648,1650-1656,1658-1663: Terminated
srun: error: nid005212: tasks 6400-6402,6405-6409,6411-6416,6418-6434,6436-6461,6464-6478,6480-6494,6496-6510,6512-6515,6517-6527: Terminated
srun: error: nid004711: tasks 5504-5506,5509,5511-5513,5515-5520,5522-5536,5538,5540-5550,5552-5565,5568-5582,5584-5596,5598,5600-5614,5616-5622,5624-5631: Terminated
srun: error: nid002683: task 1905: Terminated
srun: error: nid005138: task 6118: Terminated
srun: error: nid005226: tasks 6656-6658,6661-6665,6667,6670-6715,6717,6720-6728,6730-6734,6736-6766,6768,6770-6783: Terminated
srun: error: nid002128: tasks 512-513,515-521,523-529,531-568,570-572,574-577,579-600,602-639: Terminated
srun: error: nid005233: tasks 7168-7170,7173,7175-7184,7186-7214,7216-7229,7232-7268,7270-7278,7280-7295: Terminated
srun: error: nid005250: tasks 7680-7681,7683-7689,7691-7724,7726,7729-7736,7738-7740,7744-7746,7749-7768,7770-7790,7792-7794,7796-7805,7807: Terminated
srun: error: nid004080: tasks 4480-4482,4485-4490,4492-4496,4498-4541,4544-4545,4547-4590,4592-4598,4600-4607: Terminated
srun: error: nid002457: tasks 768-769,773-777,780-784,786-824,826-828,831-856,858-859,861-895: Terminated
srun: error: nid003343: tasks 3002,3016: Terminated
srun: error: nid003334: tasks 2304-2305,2309-2313,2315-2338,2340-2353,2355-2360,2362,2364,2368-2382,2384-2392,2394-2398,2400-2414,2416-2431: Terminated
srun: error: nid002686: task 2006: Terminated
srun: error: nid005144: tasks 6272-6274,6277-6281,6283,6285-6289,6291-6333,6336-6359,6361-6382,6384-6390,6392-6399: Terminated
srun: error: nid002459: tasks 1024,1026-1027,1029-1033,1035-1038,1040-1041,1043-1085,1087-1106,1108-1147,1149-1151: Terminated
srun: error: nid005299: task 8058: Terminated
srun: error: nid002093: tasks 256-257,261-265,267-271,273-312,314-316,319-333,335-344,346-383: Terminated
srun: error: nid005143: tasks 6144-6145,6148-6159,6161-6222,6224-6271: Terminated
srun: error: nid002455: task 753: Terminated
srun: error: nid004638: tasks 5248-5250,5253-5297,5299-5308,5312-5358,5360-5366,5368-5375: Terminated
srun: error: nid005229: task 7153: Terminated
srun: error: nid005120: tasks 5632-5633,5635-5641,5643,5646-5648,5650-5688,5690-5692,5694-5704,5706-5720,5722-5746,5748-5759: Terminated
srun: error: nid003717: task 3653: Terminated
srun: error: nid003723: tasks 4027,4065: Terminated
srun: error: nid003716: task 3558: Terminated
srun: error: nid005228: task 6929: Terminated
srun: error: nid004711: task 5597: Terminated
srun: error: nid004640: task 5489: Terminated
srun: error: nid003340: task 2811: Terminated
srun: error: nid002668: task 1524: Terminated
srun: error: nid004197: tasks 5120-5122,5124-5181,5183-5244,5246-5247: Terminated
srun: error: nid003715: task 3421: Terminated
srun: error: nid005241: task 7488: Terminated
srun: error: nid002117: task 467: Terminated
srun: error: nid002666: task 1387: Terminated
srun: error: nid005229: task 7057: Terminated
srun: error: nid002092: tasks 128-129,131-137,139-181,183-184,186-188,190,192-216,218-221,223-255: Terminated
srun: error: nid004079: tasks 4352-4354,4357-4369,4371-4413,4415-4479: Terminated
srun: error: nid003342: task 2941: Terminated
srun: error: nid005242: task 7639: Terminated
srun: error: nid002678: task 1649: Terminated
srun: error: nid003337: tasks 2449,2557: Terminated
srun: error: nid002457: task 860: Terminated
srun: error: nid005295: task 7925: Terminated
srun: error: nid003342: task 2833: Terminated
srun: error: nid003333: task 2262: Terminated
srun: error: nid004197: task 5245: Terminated
srun: error: nid002093: task 334: Terminated
srun: error: nid003721: task 3857: Terminated
srun: error: nid004081: tasks 4608-4624,4626-4672,4674-4735: Terminated
srun: error: nid001639: tasks 0-1,4-19,21-22,24-28,30-61,63-85,87-127: Terminated
srun: error: nid005131: task 5966: Terminated
srun: error: nid005122: tasks 5805,5839: Terminated
srun: error: nid002455: task 649: Terminated
srun: error: nid005225: tasks 6589,6619: Terminated
srun: error: nid004080: task 4546: Terminated
srun: error: nid002686: task 1937: Terminated
srun: error: nid005120: task 5705: Terminated
srun: error: nid003715: task 3344: Terminated
srun: error: nid005302: task 8189: Terminated
srun: error: nid004072: tasks 4224-4228,4230-4232,4234-4286,4288-4324,4326-4351: Terminated
srun: error: nid005226: task 6769: Terminated
srun: error: nid005227: tasks 6814,6899: Terminated
srun: error: nid004640: task 5393: Terminated
srun: error: nid002093: task 272: Terminated
srun: error: nid002682: tasks 1681,1729: Terminated
srun: error: nid002506: tasks 1168,1270: Terminated
srun: error: nid004072: task 4325: Terminated
srun: error: nid003735: tasks 4096-4098,4100,4102,4104-4114,4116-4119,4122-4149,4151-4223: Terminated
srun: error: nid002457: task 785: Terminated
srun: error: nid004081: task 4625: Terminated
srun: error: nid002668: task 1467: Terminated
srun: error: nid002459: tasks 1086,1107: Terminated
srun: error: nid005228: task 6986: Terminated
srun: error: nid003720: task 3729: Terminated
srun: error: nid004084: tasks 4910,4939: Terminated
srun: error: nid002678: task 1545: Terminated
srun: error: nid005120: task 5649: Terminated
srun: error: nid005242: task 7569: Terminated
srun: error: nid005143: task 6160: Terminated
srun: error: nid002455: task 734: Terminated
srun: error: nid003721: task 3964: Terminated
srun: error: nid005143: task 6223: Terminated
srun: error: nid002092: task 222: Terminated
srun: error: nid004711: task 5521: Terminated
srun: error: nid004079: task 4370: Terminated
srun: error: nid003723: tasks 3984,4048: Terminated
srun: error: nid005234: task 7389: Terminated
srun: error: nid004082: task 4753: Terminated
srun: error: nid005250: tasks 7725,7795: Terminated
srun: error: nid003338: tasks 2577,2665: Terminated
srun: error: nid003340: task 2705: Terminated
srun: error: nid002128: task 578: Terminated
srun: error: nid005241: task 7441: Terminated
srun: error: nid005212: task 6516: Terminated
srun: error: nid002117: task 401: Terminated
srun: error: nid005131: task 5905: Terminated
srun: error: nid002458: task 913: Terminated
srun: error: nid003343: task 2961: Terminated
srun: error: nid003721: task 3896: Terminated
srun: error: nid004085: tasks 5009,5091: Terminated
srun: error: nid003333: task 2193: Terminated
srun: error: nid002128: task 530: Terminated
srun: error: nid003716: task 3474: Terminated
srun: error: nid004197: task 5182: Terminated
srun: error: nid005302: task 8080: Terminated
srun: error: nid005234: task 7354: Terminated
srun: error: nid005233: task 7269: Terminated
srun: error: nid005226: task 6716: Terminated
srun: error: nid005295: task 7825: Terminated
srun: error: nid002666: task 1296: Terminated
srun: error: nid003332: task 2145: Terminated
srun: error: nid003689: tasks 3217,3269: Terminated
srun: error: nid005144: task 6290: Terminated
srun: error: nid003717: task 3626: Terminated
srun: error: nid004080: task 4497: Terminated
srun: error: nid002459: task 1042: Terminated
srun: error: nid003424: task 3134: Terminated
srun: error: nid003332: task 2064: Terminated
srun: error: nid005233: task 7185: Terminated
srun: error: nid005138: task 6032: Terminated
srun: error: nid003424: task 3154: Terminated
srun: error: nid002683: task 1850: Terminated
srun: error: nid005299: task 7952: Terminated
srun: error: nid004082: task 4852: Terminated
srun: error: nid002458: task 1012: Terminated
srun: error: nid005212: task 6417: Terminated
srun: Force Terminated StepId=3945803.0
