 +-------------------------------------------------+
 |                                                 |
 |      CCC   AA    SSS  TTTTT  EEEEE  PPPP        |
 |     C     A  A  S       T    E      P   P       |
 |     C     AAAA   SS     T    EEE    PPPP        |
 |     C     A  A     S    T    E      P           |
 |      CCC  A  A  SSS     T    EEEEE  P           |
 |                                                 |
 +-------------------------------------------------+
 |                                                 |
 | Welcome to Academic Release CASTEP version 16.11|          
 | Ab Initio Total Energy Program                  |
 |                                                 |
 | Authors:                                        |
 | M. Segall, M. Probert, C. Pickard, P. Hasnip,   |
 | S. Clark, K. Refson, J. R. Yates, M. Payne      |
 |                                                 |
 | Contributors:                                   |
 | P. Lindan, P. Haynes, J. White, V. Milman,      |
 | N. Govind, M. Gibson, P. Tulip, V. Cocula,      |
 | B. Montanari, D. Quigley, M. Glover,            |
 | L. Bernasconi, A. Perlov, M. Plummer,           |
 | E. McNellis, J. Meyer, J. Gale, D. Jochym       |
 | J. Aarons, B. Walker, R. Gillen, D. Jones       |
 | T. Green, I. J. Bush, C. J. Armstrong,          |
 | E. J. Higgins, E. L. Brown, M. S. McFly         |
 |                                                 |
 | Copyright (c) 2000 - 2015                       |
 |                                                 |
 |     Distributed under the terms of an           |
 |     Agreement between the United Kingdom        |
 |     Car-Parrinello (UKCP) Consortium,           |
 |     Daresbury Laboratory and Accelrys, Inc.     |
 |                                                 |
 | Please cite                                     |
 |                                                 |
 |     "First principles methods using CASTEP"     |
 |                                                 |
 |         Zeitschrift fuer Kristallographie       |
 |           220(5-6) pp. 567-570 (2005)           |
 |                                                 |
 | S. J. Clark, M. D. Segall, C. J. Pickard,       |
 | P. J. Hasnip, M. J. Probert, K. Refson,         |
 | M. C. Payne                                     |
 |                                                 |
 |       in all publications arising from          |
 |              your use of CASTEP                 |
 |                                                 |
 +-------------------------------------------------+
 
 
 Compiled for linux_x86_64_ifort17 on Fri, 24 Mar 2017 09:40:35 +0000
 from code version 
 203e84763863+ Castep161_branch Fri, 04 Mar 2016 19:21:07 +0000
 Compiler: Intel Fortran 17.0.2.174; Optimisation: fast
 MATHLIBS: Intel MKL(2017.0.2) (LAPACK version 3.7.0)
 FFT Lib : fftw3 version fftw-3.3.5
 Fundamental constants values: CODATA 2010
 
 Run started: Mon, 11 Sep 2017 12:14:32 +0100
 
 Pseudo atomic calculation performed for O 2s2 2p4
 
 Converged in 13 iterations to a total energy of -430.9846 eV
 
 
 Pseudo atomic calculation performed for Al 3s2 3p1
 
 Converged in 14 iterations to a total energy of -53.3906 eV
 
 Calculation parallelised over 576 processes.
 Data is distributed by G-vector(288-way) and k-point(2-way)

 ************************************ Title ************************************
 3x3 sapphire surface benchmark (v1.1)

 ***************************** General Parameters ******************************
  
 output verbosity                               : normal  (1)
 write checkpoint data to                       : al3x3.check
 type of calculation                            : single point energy
 stress calculation                             : off
 density difference calculation                 : off
 electron localisation func (ELF) calculation   : off
 Hirshfeld analysis                             : off
 unlimited duration calculation
 timing information                             : on
 memory usage estimate                          : on
 write final potential to formatted file        : off
 write final density to formatted file          : off
 write BibTeX reference list                    : on
 write OTFG pseudopotential files               : on
 checkpoint writing                             : both castep_bin and check files
  
 output         length unit                     : A
 output           mass unit                     : amu
 output           time unit                     : ps
 output         charge unit                     : e
 output           spin unit                     : hbar/2
 output         energy unit                     : eV
 output          force unit                     : eV/A
 output       velocity unit                     : A/ps
 output       pressure unit                     : GPa
 output     inv_length unit                     : 1/A
 output      frequency unit                     : cm-1
 output force constant unit                     : eV/A**2
 output         volume unit                     : A**3
 output   IR intensity unit                     : (D/A)**2/amu
 output         dipole unit                     : D
 output         efield unit                     : eV/A/e
 output        entropy unit                     : J/mol/K
  
 wavefunctions paging                           : none
 random number generator seed                   :          1
 data distribution                              : optimal for this architecture
 optimization strategy                          : maximize speed(+++)

 *********************** Exchange-Correlation Parameters ***********************
  
 using functional                               : Perdew Wang (1991)
 relativistic treatment                         : Koelling-Harmon
 DFT+D: Semi-empirical dispersion correction    : off

 ************************* Pseudopotential Parameters **************************
  
 pseudopotential representation                 : reciprocal space
 <beta|phi> representation                      : reciprocal space
 spin-orbit coupling                            : off

 **************************** Basis Set Parameters *****************************
  
 plane wave basis set cut-off                   :   400.0000   eV
 size of standard grid                          :     1.7500
 size of   fine   gmax                          :    17.9311   1/A
 finite basis set correction                    : none

 **************************** Electronic Parameters ****************************
  
 number of  electrons                           :  1296.    
 net charge of system                           :  0.000    
 treating system as non-spin-polarized
 number of bands                                :        768

 ********************* Electronic Minimization Parameters **********************
  
 Method: Treating system as metallic with density mixing treatment of electrons,
         and number of  SD  steps               :          1
         and number of  CG  steps               :          4
  
 total energy / atom convergence tol.           : 0.1500E-01   eV
 eigen-energy convergence tolerance             : 0.1000E-05   eV
 max force / atom convergence tol.              : ignored
 convergence tolerance window                   :          3   cycles
 max. number of SCF cycles                      :         40
 smearing scheme                                : Gaussian
 smearing width                                 : 0.1000       eV
 Fermi energy convergence tolerance             : 0.2721E-13   eV
 periodic dipole correction                     : NONE

 ************************** Density Mixing Parameters **************************
  
 density-mixing scheme                          : Pulay
 max. length of mixing history                  :         20
 charge density mixing amplitude                : 0.8000    
 cut-off energy for mixing                      :  400.0       eV

 *******************************************************************************
  
 
                           -------------------------------
                                      Unit Cell
                           -------------------------------
        Real Lattice(A)                      Reciprocal Lattice(1/A)
  12.3642447  -7.1385000   0.0000000        0.5081738   0.0000000   0.0000000
   0.0000000  14.2770000   0.0000000        0.2540869   0.4400914   0.0000000
   0.0000000   0.0000000  27.5000000        0.0000000   0.0000000   0.2284795
 
                       Lattice parameters(A)       Cell Angles
                    a =   14.277000          alpha =   90.000000
                    b =   14.277000          beta  =   90.000000
                    c =   27.500000          gamma =  120.000000
 
                       Current cell volume = 4854.418839       A**3
 
                           -------------------------------
                                     Cell Contents
                           -------------------------------
                         Total number of ions in cell =  270
                      Total number of species in cell =    2
                        Max number of any one species =  162
 
            xxxxxxxxxxxxxxxxxxxxxxxxxxxxxxxxxxxxxxxxxxxxxxxxxxxxxxxxxxxx
            x  Element    Atom        Fractional coordinates of atoms  x
            x            Number           u          v          w      x
            x----------------------------------------------------------x
            x  O            1         0.102000   0.000000   0.645700   x 
            x  O            2         0.000000   0.102000   0.645700   x 
            x  O            3         0.231333   0.231333   0.645700   x 
            x  O            4         0.009111   0.222222   0.724433   x 
            x  O            5         0.111111   0.120222   0.724433   x 
            x  O            6         0.213111   0.324222   0.724433   x 
            x  O            7         0.120222   0.111111   0.566967   x 
            x  O            8         0.222222   0.009111   0.566967   x 
            x  O            9         0.324222   0.213111   0.566967   x 
            x  O           10         0.324222   0.111111   0.803167   x 
            x  O           11         0.222222   0.213111   0.803167   x 
            x  O           12         0.120222   0.009111   0.803167   x 
            x  O           13         0.213111   0.222222   0.960633   x 
            x  O           14         0.111111   0.324222   0.960633   x 
            x  O           15         0.009111   0.120222   0.960633   x 
            x  O           16         0.231333   0.000000   0.881900   x 
            x  O           17         0.000000   0.231333   0.881900   x 
            x  O           18         0.102000   0.102000   0.881900   x 
            x  O           19         0.102000   0.333333   0.645700   x 
            x  O           20         0.000000   0.435333   0.645700   x 
            x  O           21         0.231333   0.564667   0.645700   x 
            x  O           22         0.009111   0.555556   0.724433   x 
            x  O           23         0.111111   0.453556   0.724433   x 
            x  O           24         0.213111   0.657556   0.724433   x 
            x  O           25         0.120222   0.444444   0.566967   x 
            x  O           26         0.222222   0.342444   0.566967   x 
            x  O           27         0.324222   0.546444   0.566967   x 
            x  O           28         0.324222   0.444444   0.803167   x 
            x  O           29         0.222222   0.546444   0.803167   x 
            x  O           30         0.120222   0.342444   0.803167   x 
            x  O           31         0.213111   0.555556   0.960633   x 
            x  O           32         0.111111   0.657556   0.960633   x 
            x  O           33         0.009111   0.453556   0.960633   x 
            x  O           34         0.231333   0.333333   0.881900   x 
            x  O           35         0.000000   0.564667   0.881900   x 
            x  O           36         0.102000   0.435333   0.881900   x 
            x  O           37         0.102000   0.666667   0.645700   x 
            x  O           38         0.000000   0.768667   0.645700   x 
            x  O           39         0.231333   0.898000   0.645700   x 
            x  O           40         0.009111   0.888889   0.724433   x 
            x  O           41         0.111111   0.786889   0.724433   x 
            x  O           42         0.213111   0.990889   0.724433   x 
            x  O           43         0.120222   0.777778   0.566967   x 
            x  O           44         0.222222   0.675778   0.566967   x 
            x  O           45         0.324222   0.879778   0.566967   x 
            x  O           46         0.324222   0.777778   0.803167   x 
            x  O           47         0.222222   0.879778   0.803167   x 
            x  O           48         0.120222   0.675778   0.803167   x 
            x  O           49         0.213111   0.888889   0.960633   x 
            x  O           50         0.111111   0.990889   0.960633   x 
            x  O           51         0.009111   0.786889   0.960633   x 
            x  O           52         0.231333   0.666667   0.881900   x 
            x  O           53         0.000000   0.898000   0.881900   x 
            x  O           54         0.102000   0.768667   0.881900   x 
            x  O           55         0.435333   0.000000   0.645700   x 
            x  O           56         0.333333   0.102000   0.645700   x 
            x  O           57         0.564667   0.231333   0.645700   x 
            x  O           58         0.342444   0.222222   0.724433   x 
            x  O           59         0.444444   0.120222   0.724433   x 
            x  O           60         0.546444   0.324222   0.724433   x 
            x  O           61         0.453556   0.111111   0.566967   x 
            x  O           62         0.555556   0.009111   0.566967   x 
            x  O           63         0.657556   0.213111   0.566967   x 
            x  O           64         0.657556   0.111111   0.803167   x 
            x  O           65         0.555556   0.213111   0.803167   x 
            x  O           66         0.453556   0.009111   0.803167   x 
            x  O           67         0.546444   0.222222   0.960633   x 
            x  O           68         0.444444   0.324222   0.960633   x 
            x  O           69         0.342444   0.120222   0.960633   x 
            x  O           70         0.564667   0.000000   0.881900   x 
            x  O           71         0.333333   0.231333   0.881900   x 
            x  O           72         0.435333   0.102000   0.881900   x 
            x  O           73         0.435333   0.333333   0.645700   x 
            x  O           74         0.333333   0.435333   0.645700   x 
            x  O           75         0.564667   0.564667   0.645700   x 
            x  O           76         0.342444   0.555556   0.724433   x 
            x  O           77         0.444444   0.453556   0.724433   x 
            x  O           78         0.546444   0.657556   0.724433   x 
            x  O           79         0.453556   0.444444   0.566967   x 
            x  O           80         0.555556   0.342444   0.566967   x 
            x  O           81         0.657556   0.546444   0.566967   x 
            x  O           82         0.657556   0.444444   0.803167   x 
            x  O           83         0.555556   0.546444   0.803167   x 
            x  O           84         0.453556   0.342444   0.803167   x 
            x  O           85         0.546444   0.555556   0.960633   x 
            x  O           86         0.444444   0.657556   0.960633   x 
            x  O           87         0.342444   0.453556   0.960633   x 
            x  O           88         0.564667   0.333333   0.881900   x 
            x  O           89         0.333333   0.564667   0.881900   x 
            x  O           90         0.435333   0.435333   0.881900   x 
            x  O           91         0.435333   0.666667   0.645700   x 
            x  O           92         0.333333   0.768667   0.645700   x 
            x  O           93         0.564667   0.898000   0.645700   x 
            x  O           94         0.342444   0.888889   0.724433   x 
            x  O           95         0.444444   0.786889   0.724433   x 
            x  O           96         0.546444   0.990889   0.724433   x 
            x  O           97         0.453556   0.777778   0.566967   x 
            x  O           98         0.555556   0.675778   0.566967   x 
            x  O           99         0.657556   0.879778   0.566967   x 
            x  O          100         0.657556   0.777778   0.803167   x 
            x  O          101         0.555556   0.879778   0.803167   x 
            x  O          102         0.453556   0.675778   0.803167   x 
            x  O          103         0.546444   0.888889   0.960633   x 
            x  O          104         0.444444   0.990889   0.960633   x 
            x  O          105         0.342444   0.786889   0.960633   x 
            x  O          106         0.564667   0.666667   0.881900   x 
            x  O          107         0.333333   0.898000   0.881900   x 
            x  O          108         0.435333   0.768667   0.881900   x 
            x  O          109         0.768667   0.000000   0.645700   x 
            x  O          110         0.666667   0.102000   0.645700   x 
            x  O          111         0.898000   0.231333   0.645700   x 
            x  O          112         0.675778   0.222222   0.724433   x 
            x  O          113         0.777778   0.120222   0.724433   x 
            x  O          114         0.879778   0.324222   0.724433   x 
            x  O          115         0.786889   0.111111   0.566967   x 
            x  O          116         0.888889   0.009111   0.566967   x 
            x  O          117         0.990889   0.213111   0.566967   x 
            x  O          118         0.990889   0.111111   0.803167   x 
            x  O          119         0.888889   0.213111   0.803167   x 
            x  O          120         0.786889   0.009111   0.803167   x 
            x  O          121         0.879778   0.222222   0.960633   x 
            x  O          122         0.777778   0.324222   0.960633   x 
            x  O          123         0.675778   0.120222   0.960633   x 
            x  O          124         0.898000   0.000000   0.881900   x 
            x  O          125         0.666667   0.231333   0.881900   x 
            x  O          126         0.768667   0.102000   0.881900   x 
            x  O          127         0.768667   0.333333   0.645700   x 
            x  O          128         0.666667   0.435333   0.645700   x 
            x  O          129         0.898000   0.564667   0.645700   x 
            x  O          130         0.675778   0.555556   0.724433   x 
            x  O          131         0.777778   0.453556   0.724433   x 
            x  O          132         0.879778   0.657556   0.724433   x 
            x  O          133         0.786889   0.444444   0.566967   x 
            x  O          134         0.888889   0.342444   0.566967   x 
            x  O          135         0.990889   0.546444   0.566967   x 
            x  O          136         0.990889   0.444444   0.803167   x 
            x  O          137         0.888889   0.546444   0.803167   x 
            x  O          138         0.786889   0.342444   0.803167   x 
            x  O          139         0.879778   0.555556   0.960633   x 
            x  O          140         0.777778   0.657556   0.960633   x 
            x  O          141         0.675778   0.453556   0.960633   x 
            x  O          142         0.898000   0.333333   0.881900   x 
            x  O          143         0.666667   0.564667   0.881900   x 
            x  O          144         0.768667   0.435333   0.881900   x 
            x  O          145         0.768667   0.666667   0.645700   x 
            x  O          146         0.666667   0.768667   0.645700   x 
            x  O          147         0.898000   0.898000   0.645700   x 
            x  O          148         0.675778   0.888889   0.724433   x 
            x  O          149         0.777778   0.786889   0.724433   x 
            x  O          150         0.879778   0.990889   0.724433   x 
            x  O          151         0.786889   0.777778   0.566967   x 
            x  O          152         0.888889   0.675778   0.566967   x 
            x  O          153         0.990889   0.879778   0.566967   x 
            x  O          154         0.990889   0.777778   0.803167   x 
            x  O          155         0.888889   0.879778   0.803167   x 
            x  O          156         0.786889   0.675778   0.803167   x 
            x  O          157         0.879778   0.888889   0.960633   x 
            x  O          158         0.777778   0.990889   0.960633   x 
            x  O          159         0.675778   0.786889   0.960633   x 
            x  O          160         0.898000   0.666667   0.881900   x 
            x  O          161         0.666667   0.898000   0.881900   x 
            x  O          162         0.768667   0.768667   0.881900   x 
            x  Al           1         0.000000   0.000000   0.693885   x 
            x  Al           2         0.000000   0.000000   0.597515   x 
            x  Al           3         0.222222   0.111111   0.615151   x 
            x  Al           4         0.111111   0.222222   0.676249   x 
            x  Al           5         0.222222   0.111111   0.754982   x 
            x  Al           6         0.111111   0.222222   0.772618   x 
            x  Al           7         0.222222   0.111111   0.991182   x 
            x  Al           8         0.111111   0.222222   0.536418   x 
            x  Al           9         0.000000   0.000000   0.833715   x 
            x  Al          10         0.222222   0.111111   0.851351   x 
            x  Al          11         0.000000   0.000000   0.930085   x 
            x  Al          12         0.111111   0.222222   0.912449   x 
            x  Al          13         0.000000   0.333333   0.693885   x 
            x  Al          14         0.000000   0.333333   0.597515   x 
            x  Al          15         0.222222   0.444444   0.615151   x 
            x  Al          16         0.111111   0.555556   0.676249   x 
            x  Al          17         0.222222   0.444444   0.754982   x 
            x  Al          18         0.111111   0.555556   0.772618   x 
            x  Al          19         0.222222   0.444444   0.991182   x 
            x  Al          20         0.111111   0.555556   0.536418   x 
            x  Al          21         0.000000   0.333333   0.833715   x 
            x  Al          22         0.222222   0.444444   0.851351   x 
            x  Al          23         0.000000   0.333333   0.930085   x 
            x  Al          24         0.111111   0.555556   0.912449   x 
            x  Al          25         0.000000   0.666667   0.693885   x 
            x  Al          26         0.000000   0.666667   0.597515   x 
            x  Al          27         0.222222   0.777778   0.615151   x 
            x  Al          28         0.111111   0.888889   0.676249   x 
            x  Al          29         0.222222   0.777778   0.754982   x 
            x  Al          30         0.111111   0.888889   0.772618   x 
            x  Al          31         0.222222   0.777778   0.991182   x 
            x  Al          32         0.111111   0.888889   0.536418   x 
            x  Al          33         0.000000   0.666667   0.833715   x 
            x  Al          34         0.222222   0.777778   0.851351   x 
            x  Al          35         0.000000   0.666667   0.930085   x 
            x  Al          36         0.111111   0.888889   0.912449   x 
            x  Al          37         0.333333   0.000000   0.693885   x 
            x  Al          38         0.333333   0.000000   0.597515   x 
            x  Al          39         0.555556   0.111111   0.615151   x 
            x  Al          40         0.444444   0.222222   0.676249   x 
            x  Al          41         0.555556   0.111111   0.754982   x 
            x  Al          42         0.444444   0.222222   0.772618   x 
            x  Al          43         0.555556   0.111111   0.991182   x 
            x  Al          44         0.444444   0.222222   0.536418   x 
            x  Al          45         0.333333   0.000000   0.833715   x 
            x  Al          46         0.555556   0.111111   0.851351   x 
            x  Al          47         0.333333   0.000000   0.930085   x 
            x  Al          48         0.444444   0.222222   0.912449   x 
            x  Al          49         0.333333   0.333333   0.693885   x 
            x  Al          50         0.333333   0.333333   0.597515   x 
            x  Al          51         0.555556   0.444444   0.615151   x 
            x  Al          52         0.444444   0.555556   0.676249   x 
            x  Al          53         0.555556   0.444444   0.754982   x 
            x  Al          54         0.444444   0.555556   0.772618   x 
            x  Al          55         0.555556   0.444444   0.991182   x 
            x  Al          56         0.444444   0.555556   0.536418   x 
            x  Al          57         0.333333   0.333333   0.833715   x 
            x  Al          58         0.555556   0.444444   0.851351   x 
            x  Al          59         0.333333   0.333333   0.930085   x 
            x  Al          60         0.444444   0.555556   0.912449   x 
            x  Al          61         0.333333   0.666667   0.693885   x 
            x  Al          62         0.333333   0.666667   0.597515   x 
            x  Al          63         0.555556   0.777778   0.615151   x 
            x  Al          64         0.444444   0.888889   0.676249   x 
            x  Al          65         0.555556   0.777778   0.754982   x 
            x  Al          66         0.444444   0.888889   0.772618   x 
            x  Al          67         0.555556   0.777778   0.991182   x 
            x  Al          68         0.444444   0.888889   0.536418   x 
            x  Al          69         0.333333   0.666667   0.833715   x 
            x  Al          70         0.555556   0.777778   0.851351   x 
            x  Al          71         0.333333   0.666667   0.930085   x 
            x  Al          72         0.444444   0.888889   0.912449   x 
            x  Al          73         0.666667   0.000000   0.693885   x 
            x  Al          74         0.666667   0.000000   0.597515   x 
            x  Al          75         0.888889   0.111111   0.615151   x 
            x  Al          76         0.777778   0.222222   0.676249   x 
            x  Al          77         0.888889   0.111111   0.754982   x 
            x  Al          78         0.777778   0.222222   0.772618   x 
            x  Al          79         0.888889   0.111111   0.991182   x 
            x  Al          80         0.777778   0.222222   0.536418   x 
            x  Al          81         0.666667   0.000000   0.833715   x 
            x  Al          82         0.888889   0.111111   0.851351   x 
            x  Al          83         0.666667   0.000000   0.930085   x 
            x  Al          84         0.777778   0.222222   0.912449   x 
            x  Al          85         0.666667   0.333333   0.693885   x 
            x  Al          86         0.666667   0.333333   0.597515   x 
            x  Al          87         0.888889   0.444444   0.615151   x 
            x  Al          88         0.777778   0.555556   0.676249   x 
            x  Al          89         0.888889   0.444444   0.754982   x 
            x  Al          90         0.777778   0.555556   0.772618   x 
            x  Al          91         0.888889   0.444444   0.991182   x 
            x  Al          92         0.777778   0.555556   0.536418   x 
            x  Al          93         0.666667   0.333333   0.833715   x 
            x  Al          94         0.888889   0.444444   0.851351   x 
            x  Al          95         0.666667   0.333333   0.930085   x 
            x  Al          96         0.777778   0.555556   0.912449   x 
            x  Al          97         0.666667   0.666667   0.693885   x 
            x  Al          98         0.666667   0.666667   0.597515   x 
            x  Al          99         0.888889   0.777778   0.615151   x 
            x  Al         100         0.777778   0.888889   0.676249   x 
            x  Al         101         0.888889   0.777778   0.754982   x 
            x  Al         102         0.777778   0.888889   0.772618   x 
            x  Al         103         0.888889   0.777778   0.991182   x 
            x  Al         104         0.777778   0.888889   0.536418   x 
            x  Al         105         0.666667   0.666667   0.833715   x 
            x  Al         106         0.888889   0.777778   0.851351   x 
            x  Al         107         0.666667   0.666667   0.930085   x 
            x  Al         108         0.777778   0.888889   0.912449   x 
            xxxxxxxxxxxxxxxxxxxxxxxxxxxxxxxxxxxxxxxxxxxxxxxxxxxxxxxxxxxx
 
 
                         No user defined ionic velocities
 
                           -------------------------------
                                   Details of Species
                           -------------------------------
 
                               Mass of species in AMU
                                    O   15.9994000
                                    Al   26.9815400
 
                          Electric Quadrupole Moment (Barn)
                                    O   -0.0255800 Isotope 17
                                    Al    0.1466000 Isotope 27
 
                          Files used for pseudopotentials:
                                    O O_00.usp
                                    Al Al_00.usp
 
                           -------------------------------
                              k-Points For BZ Sampling
                           -------------------------------
                       MP grid size for SCF calculation is  2  2  1
                            with an offset of   0.000  0.000  0.000
                       Number of kpoints used =             2
 
                           -------------------------------
                               Symmetry and Constraints
                           -------------------------------
 
                      Cell is a supercell containing 9 primitive cells
                      Maximum deviation from symmetry =  0.00000         ANG
 
         There are no symmetry operations specified or generated for this cell
                      Number of ionic constraints     =           3
                      Point group of crystal =     1: C1, 1, 1
                      Space group of crystal =   147: P-3, -P 3
 
 
                         Centre of mass is constrained
             Set iprint > 1 for details of linear ionic constraints
 
                         Number of cell constraints= 0
                         Cell constraints are:  1 2 3 4 5 6
 
                         External pressure/stress (GPa)
                          0.00000   0.00000   0.00000
                                    0.00000   0.00000
                                              0.00000
  
+---------------- MEMORY AND SCRATCH DISK ESTIMATES PER PROCESS --------------+
|                                                     Memory          Disk    |
| Baseline code, static data and system overhead   260281.0 MB         0.0 MB |
| BLAS internal memory storage                          0.0 MB         0.0 MB |
| Model and support data                               38.8 MB         0.0 MB |
| Electronic energy minimisation requirements          22.5 MB         0.0 MB |
| Force calculation requirements                        0.8 MB         0.0 MB |
|                                               ----------------------------- |
| Approx. total storage required per process       260342.3 MB         0.0 MB |
|                                                                             |
| Requirements will fluctuate during execution and may exceed these estimates |
+-----------------------------------------------------------------------------+
------------------------------------------------------------------------ <-- SCF
SCF loop      Energy           Fermi           Energy gain       Timer   <-- SCF
                               energy          per atom          (sec)   <-- SCF
------------------------------------------------------------------------ <-- SCF
Initial  -5.94006408E+004  0.00000000E+000                         2.66  <-- SCF
      1  -7.24105534E+004  4.01707947E+000   4.81848615E+001      27.22  <-- SCF
      2  -7.78258659E+004  1.97048067E+000   2.00567130E+001      43.72  <-- SCF
      3  -7.79864748E+004  1.80206919E+000   5.94848041E-001      60.18  <-- SCF
      4  -7.78412584E+004  1.95896258E+000  -5.37838835E-001      81.80  <-- SCF
      5  -7.77211139E+004  1.34886914E+000  -4.44979632E-001     103.47  <-- SCF
      6  -7.77152146E+004  1.12204262E+000  -2.18492253E-002     127.16  <-- SCF
      7  -7.77129450E+004  1.05286921E+000  -8.40586795E-003     148.69  <-- SCF
      8  -7.77104462E+004  1.02760467E+000  -9.25482803E-003     169.88  <-- SCF
      9  -7.77084248E+004  9.96320504E-001  -7.48662586E-003     191.15  <-- SCF
     10  -7.77059559E+004  1.11187872E+000  -9.14393367E-003     212.30  <-- SCF
     11  -7.77052030E+004  1.16287921E+000  -2.78867724E-003     232.88  <-- SCF
------------------------------------------------------------------------ <-- SCF
 
Final energy, E             =  -77705.20298537     eV
Final free energy (E-TS)    =  -77705.20298538     eV
(energies not corrected for finite basis set)
 
NB est. 0K energy (E-0.5TS)      =  -77705.20298537     eV
 

Writing analysis data to al3x3.castep_bin

Writing model to al3x3.check
 
 *********************** Forces ***********************
 *                                                    *
 *            Cartesian components (eV/A)             *
 * -------------------------------------------------- *
 *                   x            y            z      *
 *                                                    *
 * O         1      0.16536      0.02460      0.85529 *
 * O         2     -0.10343      0.11932      0.85638 *
 * O         3     -0.05942     -0.14776      0.85483 *
 * O         4     -0.10123      0.02495      0.39479 *
 * O         5      0.02126     -0.09491      0.40394 *
 * O         6      0.07625      0.07154      0.39862 *
 * O         7     -1.66217      1.76528     -1.00383 *
 * O         8     -0.68465     -2.28850     -1.01669 *
 * O         9      2.33265      0.55916     -1.02024 *
 * O        10      0.07851     -0.02453     -0.40056 *
 * O        11     -0.02029      0.07593     -0.40393 *
 * O        12     -0.05393     -0.05922     -0.40065 *
 * O        13      1.66751     -1.78525      0.94899 *
 * O        14      0.69551      2.28945      0.96507 *
 * O        15     -2.36763     -0.55308      0.95798 *
 * O        16     -0.17286     -0.01252     -0.80091 *
 * O        17      0.09405     -0.13539     -0.79747 *
 * O        18      0.07048      0.15160     -0.80818 *
 * O        19      0.16223      0.02543      0.85547 *
 * O        20     -0.09808      0.11914      0.85026 *
 * O        21     -0.06536     -0.14866      0.85300 *
 * O        22     -0.09706      0.02393      0.39427 *
 * O        23      0.02985     -0.09733      0.39654 *
 * O        24      0.07513      0.07817      0.39991 *
 * O        25     -1.64527      1.73511     -1.02313 *
 * O        26     -0.69326     -2.32018     -1.01683 *
 * O        27      2.37303      0.56389     -1.01612 *
 * O        28      0.08270     -0.01549     -0.40360 *
 * O        29     -0.02003      0.07796     -0.40453 *
 * O        30     -0.05621     -0.06025     -0.40645 *
 * O        31      1.66962     -1.79376      0.94336 *
 * O        32      0.71096      2.31999      0.95534 *
 * O        33     -2.37047     -0.55326      0.96137 *
 * O        34     -0.17128     -0.00958     -0.80336 *
 * O        35      0.09143     -0.14439     -0.80014 *
 * O        36      0.07604      0.14823     -0.80393 *
 * O        37      0.16941      0.02565      0.86537 *
 * O        38     -0.09744      0.12030      0.85484 *
 * O        39     -0.06269     -0.15028      0.85636 *
 * O        40     -0.09489      0.02243      0.40061 *
 * O        41      0.02566     -0.10135      0.39663 *
 * O        42      0.07634      0.06765      0.39767 *
 * O        43     -1.66311      1.76551     -1.00967 *
 * O        44     -0.68477     -2.30321     -1.01791 *
 * O        45      2.34005      0.55526     -1.01964 *
 * O        46      0.08388     -0.02027     -0.40308 *
 * O        47     -0.02956      0.07733     -0.40277 *
 * O        48     -0.05679     -0.06319     -0.40043 *
 * O        49      1.64561     -1.76367      0.94603 *
 * O        50      0.70894      2.32487      0.95592 *
 * O        51     -2.33454     -0.54013      0.96547 *
 * O        52     -0.17151     -0.01107     -0.81241 *
 * O        53      0.09597     -0.14279     -0.80174 *
 * O        54      0.06983      0.15118     -0.79666 *
 * O        55      0.16878      0.02248      0.86291 *
 * O        56     -0.10347      0.12595      0.85104 *
 * O        57     -0.05894     -0.15121      0.85874 *
 * O        58     -0.10509      0.02295      0.39798 *
 * O        59      0.02764     -0.09697      0.39600 *
 * O        60      0.07353      0.06958      0.39975 *
 * O        61     -1.68087      1.79248     -0.99822 *
 * O        62     -0.68204     -2.30000     -1.02417 *
 * O        63      2.32885      0.55180     -1.03751 *
 * O        64      0.08684     -0.01565     -0.39681 *
 * O        65     -0.02240      0.08081     -0.41073 *
 * O        66     -0.06151     -0.06355     -0.40263 *
 * O        67      1.64371     -1.74933      0.96061 *
 * O        68      0.71395      2.31149      0.95837 *
 * O        69     -2.35820     -0.54961      0.95338 *
 * O        70     -0.16979     -0.01645     -0.80219 *
 * O        71      0.09656     -0.14006     -0.80252 *
 * O        72      0.07601      0.14973     -0.79747 *
 * O        73      0.16114      0.02194      0.86094 *
 * O        74     -0.10230      0.12264      0.86328 *
 * O        75     -0.05785     -0.14815      0.85431 *
 * O        76     -0.10131      0.02250      0.39901 *
 * O        77      0.02167     -0.09778      0.39841 *
 * O        78      0.07470      0.07484      0.39649 *
 * O        79     -1.67789      1.78756     -1.00074 *
 * O        80     -0.67880     -2.30301     -1.02446 *
 * O        81      2.32285      0.54800     -1.02404 *
 * O        82      0.08411     -0.01928     -0.40028 *
 * O        83     -0.01786      0.07697     -0.40489 *
 * O        84     -0.05457     -0.06229     -0.40073 *
 * O        85      1.64927     -1.76746      0.95459 *
 * O        86      0.70193      2.30874      0.95945 *
 * O        87     -2.36261     -0.54839      0.94670 *
 * O        88     -0.17284     -0.01135     -0.80047 *
 * O        89      0.09670     -0.13901     -0.80848 *
 * O        90      0.07210      0.15133     -0.80334 *
 * O        91      0.16288      0.02062      0.86158 *
 * O        92     -0.09754      0.12429      0.85259 *
 * O        93     -0.05636     -0.14564      0.85910 *
 * O        94     -0.10089      0.02713      0.40309 *
 * O        95      0.02645     -0.09526      0.39525 *
 * O        96      0.07815      0.07146      0.39750 *
 * O        97     -1.66938      1.76326     -1.00543 *
 * O        98     -0.67752     -2.26688     -1.02741 *
 * O        99      2.37523      0.55718     -1.01939 *
 * O       100      0.08462     -0.01481     -0.40496 *
 * O       101     -0.02711      0.07558     -0.40031 *
 * O       102     -0.05223     -0.06469     -0.39800 *
 * O       103      1.64908     -1.76543      0.95619 *
 * O       104      0.70454      2.32355      0.95138 *
 * O       105     -2.35894     -0.54659      0.95818 *
 * O       106     -0.17650     -0.01419     -0.80669 *
 * O       107      0.09485     -0.13964     -0.80291 *
 * O       108      0.07281      0.15211     -0.80703 *
 * O       109      0.16403      0.02413      0.85998 *
 * O       110     -0.10182      0.12568      0.85275 *
 * O       111     -0.05866     -0.14934      0.85042 *
 * O       112     -0.09872      0.01885      0.38990 *
 * O       113      0.02285     -0.09784      0.39773 *
 * O       114      0.07494      0.07355      0.39223 *
 * O       115     -1.66120      1.76570     -1.01097 *
 * O       116     -0.69502     -2.31017     -1.01743 *
 * O       117      2.33539      0.54972     -1.02385 *
 * O       118      0.08555     -0.01895     -0.40182 *
 * O       119     -0.02385      0.07298     -0.40221 *
 * O       120     -0.06046     -0.06387     -0.40036 *
 * O       121      1.65316     -1.77049      0.95849 *
 * O       122      0.70454      2.31218      0.95858 *
 * O       123     -2.37584     -0.54711      0.94907 *
 * O       124     -0.17145     -0.01778     -0.81560 *
 * O       125      0.09856     -0.13669     -0.80577 *
 * O       126      0.07172      0.15190     -0.80299 *
 * O       127      0.16126      0.02532      0.85834 *
 * O       128     -0.10107      0.12598      0.85709 *
 * O       129     -0.06114     -0.15120      0.86496 *
 * O       130     -0.09936      0.01752      0.39731 *
 * O       131      0.02343     -0.09803      0.39935 *
 * O       132      0.07672      0.07457      0.39412 *
 * O       133     -1.66278      1.77284     -1.00584 *
 * O       134     -0.69692     -2.30830     -1.01774 *
 * O       135      2.38271      0.56361     -1.00679 *
 * O       136      0.07969     -0.01850     -0.40701 *
 * O       137     -0.02592      0.07523     -0.40028 *
 * O       138     -0.05552     -0.06365     -0.39786 *
 * O       139      1.65559     -1.77190      0.94963 *
 * O       140      0.71039      2.31832      0.96434 *
 * O       141     -2.39228     -0.55470      0.94825 *
 * O       142     -0.17060     -0.01238     -0.80949 *
 * O       143      0.09225     -0.13750     -0.80396 *
 * O       144      0.07638      0.14675     -0.80493 *
 * O       145      0.15851      0.02185      0.85801 *
 * O       146     -0.09925      0.12753      0.84701 *
 * O       147     -0.05725     -0.15632      0.86033 *
 * O       148     -0.10173      0.02534      0.39908 *
 * O       149      0.01911     -0.10316      0.40273 *
 * O       150      0.07508      0.07542      0.39428 *
 * O       151     -1.65593      1.76447     -1.02152 *
 * O       152     -0.70451     -2.32839     -1.01263 *
 * O       153      2.34737      0.55765     -1.02235 *
 * O       154      0.08398     -0.01471     -0.40118 *
 * O       155     -0.02782      0.07256     -0.40359 *
 * O       156     -0.05623     -0.06209     -0.40248 *
 * O       157      1.67665     -1.79377      0.94309 *
 * O       158      0.71148      2.33178      0.95327 *
 * O       159     -2.36790     -0.54390      0.96450 *
 * O       160     -0.17052     -0.00795     -0.80230 *
 * O       161      0.09374     -0.14337     -0.80073 *
 * O       162      0.06917      0.14981     -0.80598 *
 * Al        1      0.00055     -0.00059     -0.00341 *
 * Al        2     -0.00354      0.00028     -0.85396 *
 * Al        3      0.00405     -0.00434     -1.96970 *
 * Al        4      0.00044     -0.00039     -0.21541 *
 * Al        5     -0.00044     -0.00085     -0.08423 *
 * Al        6      0.00053     -0.00073      0.08706 *
 * Al        7      0.00442     -0.00838     -7.28492 *
 * Al        8     -0.00611      0.00142      7.28848 *
 * Al        9      0.00040     -0.00064      0.00929 *
 * Al       10      0.00071     -0.00072      0.23613 *
 * Al       11      0.00816      0.00180      0.84913 *
 * Al       12     -0.00186      0.00906      1.97338 *
 * Al       13      0.00051     -0.00112     -0.00362 *
 * Al       14      0.00705      0.00085     -0.85868 *
 * Al       15     -0.00820     -0.00015     -1.96315 *
 * Al       16      0.00018     -0.00012     -0.21503 *
 * Al       17     -0.00041     -0.00086     -0.08441 *
 * Al       18      0.00057     -0.00066      0.08641 *
 * Al       19     -0.01304     -0.01791     -7.28679 *
 * Al       20      0.01867     -0.01325      7.28996 *
 * Al       21      0.00028     -0.00065      0.00980 *
 * Al       22      0.00081     -0.00057      0.23594 *
 * Al       23      0.00664     -0.01410      0.85959 *
 * Al       24     -0.00155      0.00286      1.96395 *
 * Al       25      0.00028     -0.00129     -0.00402 *
 * Al       26      0.00179      0.00635     -0.84526 *
 * Al       27      0.00256     -0.00523     -1.96583 *
 * Al       28      0.00056     -0.00046     -0.21554 *
 * Al       29      0.00030     -0.00084     -0.08446 *
 * Al       30      0.00053     -0.00043      0.08703 *
 * Al       31      0.00217      0.00590     -7.28652 *
 * Al       32      0.00758      0.00911      7.29006 *
 * Al       33      0.00108     -0.00083      0.00958 *
 * Al       34      0.00069     -0.00086      0.23630 *
 * Al       35     -0.00167      0.00756      0.85881 *
 * Al       36     -0.00197     -0.00483      1.97708 *
 * Al       37      0.00016     -0.00059     -0.00350 *
 * Al       38     -0.01881     -0.00282     -0.84995 *
 * Al       39      0.01107     -0.00707     -1.96387 *
 * Al       40      0.00035     -0.00076     -0.21544 *
 * Al       41      0.00020     -0.00121     -0.08449 *
 * Al       42      0.00115     -0.00036      0.08669 *
 * Al       43     -0.01028      0.01051     -7.28640 *
 * Al       44     -0.00039      0.02375      7.28773 *
 * Al       45      0.00092     -0.00089      0.00999 *
 * Al       46      0.00024     -0.00017      0.23587 *
 * Al       47     -0.00139     -0.00215      0.85822 *
 * Al       48      0.00322     -0.00282      1.97590 *
 * Al       49      0.00020     -0.00062     -0.00413 *
 * Al       50     -0.01099     -0.01258     -0.84734 *
 * Al       51      0.01241     -0.00536     -1.96484 *
 * Al       52      0.00031     -0.00065     -0.21576 *
 * Al       53      0.00053     -0.00108     -0.08458 *
 * Al       54      0.00089     -0.00038      0.08664 *
 * Al       55     -0.01207      0.00657     -7.28464 *
 * Al       56      0.02756      0.02514      7.28709 *
 * Al       57      0.00074     -0.00072      0.00954 *
 * Al       58      0.00062     -0.00076      0.23638 *
 * Al       59      0.00654     -0.00007      0.85147 *
 * Al       60      0.00189      0.00061      1.97162 *
 * Al       61      0.00068     -0.00025     -0.00413 *
 * Al       62     -0.00800      0.00970     -0.84800 *
 * Al       63     -0.00065     -0.01503     -1.96585 *
 * Al       64      0.00050     -0.00107     -0.21553 *
 * Al       65     -0.00018     -0.00067     -0.08444 *
 * Al       66      0.00113     -0.00082      0.08666 *
 * Al       67     -0.00143      0.00064     -7.28747 *
 * Al       68      0.00654      0.01166      7.28928 *
 * Al       69      0.00015     -0.00057      0.00981 *
 * Al       70      0.00080     -0.00044      0.23642 *
 * Al       71      0.00867      0.00229      0.85212 *
 * Al       72      0.00055      0.00053      1.97315 *
 * Al       73     -0.00020     -0.00068     -0.00373 *
 * Al       74     -0.00779      0.00996     -0.84959 *
 * Al       75      0.00435     -0.00297     -1.96599 *
 * Al       76      0.00073     -0.00069     -0.21540 *
 * Al       77      0.00019     -0.00096     -0.08428 *
 * Al       78      0.00035     -0.00044      0.08670 *
 * Al       79      0.00082      0.00865     -7.28642 *
 * Al       80     -0.00409      0.00914      7.28963 *
 * Al       81      0.00046     -0.00121      0.00934 *
 * Al       82      0.00067     -0.00095      0.23596 *
 * Al       83     -0.00426     -0.00584      0.85101 *
 * Al       84      0.00546      0.00191      1.97124 *
 * Al       85     -0.00005     -0.00092     -0.00353 *
 * Al       86     -0.00884     -0.00577     -0.85485 *
 * Al       87     -0.00140     -0.00567     -1.95801 *
 * Al       88      0.00078     -0.00042     -0.21555 *
 * Al       89      0.00007     -0.00090     -0.08447 *
 * Al       90      0.00035     -0.00016      0.08665 *
 * Al       91     -0.00783      0.00335     -7.28645 *
 * Al       92     -0.01355      0.00859      7.28909 *
 * Al       93      0.00056     -0.00057      0.00951 *
 * Al       94      0.00067     -0.00071      0.23620 *
 * Al       95     -0.00515     -0.01615      0.85453 *
 * Al       96      0.00572      0.00160      1.96660 *
 * Al       97      0.00053     -0.00081     -0.00343 *
 * Al       98     -0.01541     -0.00010     -0.86373 *
 * Al       99      0.00141      0.00068     -1.96287 *
 * Al      100      0.00025     -0.00066     -0.21546 *
 * Al      101     -0.00015     -0.00093     -0.08399 *
 * Al      102      0.00079     -0.00058      0.08659 *
 * Al      103      0.01267     -0.01624     -7.28646 *
 * Al      104      0.01512     -0.00089      7.28742 *
 * Al      105      0.00112     -0.00082      0.01009 *
 * Al      106      0.00035     -0.00004      0.23595 *
 * Al      107     -0.00149     -0.00123      0.85476 *
 * Al      108     -0.00474      0.00029      1.96399 *
 *                                                    *
 ******************************************************

Writing analysis data to al3x3.castep_bin

Writing model to al3x3.check
 
 A BibTeX formatted list of references used in this run has been written to 
 al3x3.bib
 
Initialisation time =      2.15 s
Calculation time    =    242.09 s
Finalisation time   =      5.92 s
Total time          =    250.15 s
Peak Memory Use     = 268765172 kB
  
Overall parallel efficiency rating: Terrible (28%)                              
  
Data was distributed by:-
G-vector (288-way); efficiency rating: Terrible (31%)                           
k-point (2-way); efficiency rating: Excellent (92%)                             
  
Parallel notes:
1) Calculation only took 244.2 s, so efficiency estimates may be inaccurate.    
