 vasp.6.4.2 20Jul23 (build Jan 29 2024 09:14:07) gamma-only                      
 executed on        HPECrayEX_GCC date 2024.03.06  15:13:33
 running   64 mpi-ranks, with    2 threads/rank, on    1 nodes
 distrk:  each k-point on   64 cores,    1 groups
 distr:  one band on NCORE=   1 cores,   64 groups


--------------------------------------------------------------------------------------------------------


 INCAR:
   LFORCE = .F.
   LUSE_VDW = .TRUE.
   AGGAC = 0.0000
   GGA = MK
   PARAM1 = 0.1234
   PARAM2 = 0.711357
   ZAB_VDW = -1.8867
   ICORELEVEL = 2
   CLN = 4
   CLL = 3
   CLZ = 1
   LREAL = Auto
   ALGO = Fast
   ENCUT = 400
   ENAUG = 644.873
   NELM = 160
   LWAVE = .F.
   LCHARG = .F.
   ISIF = 0
   NCORE = 1
   KPAR = 1

 POTCAR:   PAW_PBE Pt 05Jan2001                   
 POTCAR:    PAW_PBE Ir 06Sep2000                  
 POTCAR:    PAW_PBE C 08Apr2002                   
 POTCAR:   PAW_PBE Pt 05Jan2001                   
 POTCAR:    PAW_PBE O 08Apr2002                   
 -----------------------------------------------------------------------------
|                                                                             |
|               ----> ADVICE to this user running VASP <----                  |
|                                                                             |
|     You have switched on vdW-DFT.                                           |
|     This routine was written and supplied by Jiri Klimes. We recommend      |
|     that you carefully read and cite the following publications:            |
|       J. Klimes, D.R. Bowler, A. Michelides                                 |
|          J. Phys.: Cond Matt. 22 022201 (2010)                              |
|       J. Klimes, D.R. Bowler, A. Michelides                                 |
|          Phys. Rev. B. 83, 195131 (2011)                                    |
|     and references therein.                                                 |
|                                                                             |
 -----------------------------------------------------------------------------

 POTCAR:   PAW_PBE Pt 05Jan2001                   
   VRHFIN =Pt: s1d9                                                                                 
   LEXCH  = PE                                                                                      
   EATOM  =   729.1171 eV,   53.5886 Ry                                                             
                                                                                                    
   TITEL  = PAW_PBE Pt 05Jan2001                                                                    
   LULTRA =        F    use ultrasoft PP ?                                                          
   IUNSCR =        1    unscreen: 0-lin 1-nonlin 2-no                                               
   RPACOR =    2.330    partial core radius                                                         
   POMASS =  195.080; ZVAL   =   10.000    mass and valenz                                          
   RCORE  =    2.500    outmost cutoff radius                                                       
   RWIGS  =    2.750; RWIGS  =    1.455    wigner-seitz radius (au A)                               
   ENMAX  =  230.283; ENMIN  =  172.712 eV                                                          
   RCLOC  =    1.896    cutoff for local pot                                                        
   LCOR   =        T    correct aug charges                                                         
   LPAW   =        T    paw PP                                                                      
   EAUG   =  358.966                                                                                
   DEXC   =    -.039                                                                                
   RMAX   =    3.038    core radius for proj-oper                                                   
   RAUG   =    1.300    factor for augmentation sphere                                              
   RDEP   =    2.590    radius for radial grids                                                     
   QCUT   =   -4.114; QGAM   =    8.228    optimization parameters                                  
                                                                                                    
   Description                                                                                      
     l     E      TYP  RCUT    TYP  RCUT                                                            
     2   .000     23  2.500                                                                         
     2   .000     23  2.500                                                                         
     0   .000     23  2.500                                                                         
     0   .000     23  2.500                                                                         
     1  -.200     23  2.500                                                                         
     1  1.500     23  2.500                                                                         
     3   .000      7   .000                                                                         
  local pseudopotential read in
  partial core-charges read in
  atomic valenz-charges read in
  non local Contribution for L=           2  read in
    real space projection operators read in
  non local Contribution for L=           2  read in
    real space projection operators read in
  non local Contribution for L=           0  read in
    real space projection operators read in
  non local Contribution for L=           0  read in
    real space projection operators read in
  non local Contribution for L=           1  read in
    real space projection operators read in
  non local Contribution for L=           1  read in
    real space projection operators read in
    PAW grid and wavefunctions read in

   number of l-projection  operators is LMAX  =           6
   number of lm-projection operators is LMMAX =          18

 POTCAR:    PAW_PBE Ir 06Sep2000                  
   VRHFIN =Ir: s1d8                                                                                 
   LEXCH  = PE                                                                                      
   EATOM  =   560.1833 eV,   41.1723 Ry                                                             
                                                                                                    
   TITEL  = PAW_PBE Ir 06Sep2000                                                                    
   LULTRA =        F    use ultrasoft PP ?                                                          
   IUNSCR =        1    unscreen: 0-lin 1-nonlin 2-no                                               
   RPACOR =    2.250    partial core radius                                                         
   POMASS =  192.220; ZVAL   =    9.000    mass and valenz                                          
   RCORE  =    2.600    outmost cutoff radius                                                       
   RWIGS  =    2.690; RWIGS  =    1.423    wigner-seitz radius (au A)                               
   ENMAX  =  210.864; ENMIN  =  158.148 eV                                                          
   RCLOC  =    1.857    cutoff for local pot                                                        
   LCOR   =        T    correct aug charges                                                         
   LPAW   =        T    paw PP                                                                      
   EAUG   =  318.962                                                                                
   DEXC   =    0.000                                                                                
   RMAX   =    2.667    core radius for proj-oper                                                   
   RAUG   =    1.300    factor for augmentation sphere                                              
   RDEP   =    2.748    radius for radial grids                                                     
   RDEPT  =    2.300    core radius for aug-charge                                                  
                                                                                                    
   Atomic configuration                                                                             
   16 entries                                                                                       
     n  l   j            E        occ.                                                              
     1  0  0.50    -76100.0449   2.0000                                                             
     2  0  0.50    -13308.1683   2.0000                                                             
     2  1  1.50    -11558.0021   6.0000                                                             
     3  0  0.50     -3110.7274   2.0000                                                             
     3  1  1.50     -2599.2109   6.0000                                                             
     3  2  2.50     -2037.1515  10.0000                                                             
     4  0  0.50      -661.6001   2.0000                                                             
     4  1  1.50      -493.8981   6.0000                                                             
     4  2  2.50      -288.1909  10.0000                                                             
     4  3  3.50       -59.5718  14.0000                                                             
     5  0  0.50       -95.3879   2.0000                                                             
     5  1  1.50       -52.2747   6.0000                                                             
     5  2  2.50        -5.4180   8.0000                                                             
     6  0  0.50        -5.5479   1.0000                                                             
     6  1  1.50        -6.8029   0.0000                                                             
     5  3  2.50        -1.3606   0.0000                                                             
   Description                                                                                      
     l       E           TYP  RCUT    TYP  RCUT                                                     
     2     -5.4179967     23  2.600                                                                 
     2     -6.7785793     23  2.600                                                                 
     0     -5.5478636     23  2.600                                                                 
     0      2.2542272     23  2.600                                                                 
     1     -2.7211652     23  2.600                                                                 
     1     20.4087390     23  2.600                                                                 
  local pseudopotential read in
  partial core-charges read in
  partial kinetic energy density read in
  atomic valenz-charges read in
  non local Contribution for L=           2  read in
    real space projection operators read in
  non local Contribution for L=           2  read in
    real space projection operators read in
  non local Contribution for L=           0  read in
    real space projection operators read in
  non local Contribution for L=           0  read in
    real space projection operators read in
  non local Contribution for L=           1  read in
    real space projection operators read in
  non local Contribution for L=           1  read in
    real space projection operators read in
    PAW grid and wavefunctions read in

   number of l-projection  operators is LMAX  =           6
   number of lm-projection operators is LMMAX =          18

 POTCAR:    PAW_PBE C 08Apr2002                   
   VRHFIN =C: s2p2                                                                                  
   LEXCH  = PE                                                                                      
   EATOM  =   147.1560 eV,   10.8157 Ry                                                             
                                                                                                    
   TITEL  = PAW_PBE C 08Apr2002                                                                     
   LULTRA =        F    use ultrasoft PP ?                                                          
   IUNSCR =        1    unscreen: 0-lin 1-nonlin 2-no                                               
   RPACOR =    1.200    partial core radius                                                         
   POMASS =   12.011; ZVAL   =    4.000    mass and valenz                                          
   RCORE  =    1.500    outmost cutoff radius                                                       
   RWIGS  =    1.630; RWIGS  =    0.863    wigner-seitz radius (au A)                               
   ENMAX  =  400.000; ENMIN  =  300.000 eV                                                          
   ICORE  =        2    local potential                                                             
   LCOR   =        T    correct aug charges                                                         
   LPAW   =        T    paw PP                                                                      
   EAUG   =  644.873                                                                                
   DEXC   =    0.000                                                                                
   RMAX   =    1.529    core radius for proj-oper                                                   
   RAUG   =    1.300    factor for augmentation sphere                                              
   RDEP   =    1.501    radius for radial grids                                                     
   RDEPT  =    1.300    core radius for aug-charge                                                  
                                                                                                    
   Atomic configuration                                                                             
    4 entries                                                                                       
     n  l   j            E        occ.                                                              
     1  0  0.50      -273.3789   2.0000                                                             
     2  0  0.50       -13.7508   2.0000                                                             
     2  1  0.50        -5.2854   2.0000                                                             
     3  2  1.50        -5.4423   0.0000                                                             
   Description                                                                                      
     l       E           TYP  RCUT    TYP  RCUT                                                     
     0    -13.7508458     23  1.200                                                                 
     0     -8.2022199     23  1.200                                                                 
     1     -5.2854383     23  1.500                                                                 
     1     34.0145650     23  1.500                                                                 
     2     -5.4423304      7  1.500                                                                 
  local pseudopotential read in
  partial core-charges read in
  partial kinetic energy density read in
  atomic valenz-charges read in
  non local Contribution for L=           0  read in
    real space projection operators read in
  non local Contribution for L=           0  read in
    real space projection operators read in
  non local Contribution for L=           1  read in
    real space projection operators read in
  non local Contribution for L=           1  read in
    real space projection operators read in
    PAW grid and wavefunctions read in

   number of l-projection  operators is LMAX  =           4
   number of lm-projection operators is LMMAX =           8

 POTCAR:   PAW_PBE Pt 05Jan2001                   
   VRHFIN =Pt: s1d9                                                                                 
   LEXCH  = PE                                                                                      
   EATOM  =   729.1171 eV,   53.5886 Ry                                                             
                                                                                                    
   TITEL  = PAW_PBE Pt 05Jan2001                                                                    
   LULTRA =        F    use ultrasoft PP ?                                                          
   IUNSCR =        1    unscreen: 0-lin 1-nonlin 2-no                                               
   RPACOR =    2.330    partial core radius                                                         
   POMASS =  195.080; ZVAL   =   10.000    mass and valenz                                          
   RCORE  =    2.500    outmost cutoff radius                                                       
   RWIGS  =    2.750; RWIGS  =    1.455    wigner-seitz radius (au A)                               
   ENMAX  =  230.283; ENMIN  =  172.712 eV                                                          
   RCLOC  =    1.896    cutoff for local pot                                                        
   LCOR   =        T    correct aug charges                                                         
   LPAW   =        T    paw PP                                                                      
   EAUG   =  358.966                                                                                
   DEXC   =    -.039                                                                                
   RMAX   =    3.038    core radius for proj-oper                                                   
   RAUG   =    1.300    factor for augmentation sphere                                              
   RDEP   =    2.590    radius for radial grids                                                     
   QCUT   =   -4.114; QGAM   =    8.228    optimization parameters                                  
                                                                                                    
   Description                                                                                      
     l     E      TYP  RCUT    TYP  RCUT                                                            
     2   .000     23  2.500                                                                         
     2   .000     23  2.500                                                                         
     0   .000     23  2.500                                                                         
     0   .000     23  2.500                                                                         
     1  -.200     23  2.500                                                                         
     1  1.500     23  2.500                                                                         
     3   .000      7   .000                                                                         
  local pseudopotential read in
  partial core-charges read in
  atomic valenz-charges read in
  non local Contribution for L=           2  read in
    real space projection operators read in
  non local Contribution for L=           2  read in
    real space projection operators read in
  non local Contribution for L=           0  read in
    real space projection operators read in
  non local Contribution for L=           0  read in
    real space projection operators read in
  non local Contribution for L=           1  read in
    real space projection operators read in
  non local Contribution for L=           1  read in
    real space projection operators read in
    PAW grid and wavefunctions read in

   number of l-projection  operators is LMAX  =           6
   number of lm-projection operators is LMMAX =          18

 POTCAR:    PAW_PBE O 08Apr2002                   
   VRHFIN =O: s2p4                                                                                  
   LEXCH  = PE                                                                                      
   EATOM  =   432.3788 eV,   31.7789 Ry                                                             
                                                                                                    
   TITEL  = PAW_PBE O 08Apr2002                                                                     
   LULTRA =        F    use ultrasoft PP ?                                                          
   IUNSCR =        1    unscreen: 0-lin 1-nonlin 2-no                                               
   RPACOR =    1.200    partial core radius                                                         
   POMASS =   16.000; ZVAL   =    6.000    mass and valenz                                          
   RCORE  =    1.520    outmost cutoff radius                                                       
   RWIGS  =    1.550; RWIGS  =    0.820    wigner-seitz radius (au A)                               
   ENMAX  =  400.000; ENMIN  =  300.000 eV                                                          
   ICORE  =        2    local potential                                                             
   LCOR   =        T    correct aug charges                                                         
   LPAW   =        T    paw PP                                                                      
   EAUG   =  605.392                                                                                
   DEXC   =    0.000                                                                                
   RMAX   =    1.553    core radius for proj-oper                                                   
   RAUG   =    1.300    factor for augmentation sphere                                              
   RDEP   =    1.550    radius for radial grids                                                     
   RDEPT  =    1.329    core radius for aug-charge                                                  
                                                                                                    
   Atomic configuration                                                                             
    4 entries                                                                                       
     n  l   j            E        occ.                                                              
     1  0  0.50      -514.6923   2.0000                                                             
     2  0  0.50       -23.9615   2.0000                                                             
     2  1  0.50        -9.0305   4.0000                                                             
     3  2  1.50        -9.5241   0.0000                                                             
   Description                                                                                      
     l       E           TYP  RCUT    TYP  RCUT                                                     
     0    -23.9615318     23  1.200                                                                 
     0     -9.5240782     23  1.200                                                                 
     1     -9.0304911     23  1.520                                                                 
     1      8.1634956     23  1.520                                                                 
     2     -9.5240782      7  1.500                                                                 
  local pseudopotential read in
  partial core-charges read in
  partial kinetic energy density read in
  kinetic energy density of atom read in
  atomic valenz-charges read in
  non local Contribution for L=           0  read in
    real space projection operators read in
  non local Contribution for L=           0  read in
    real space projection operators read in
  non local Contribution for L=           1  read in
    real space projection operators read in
  non local Contribution for L=           1  read in
    real space projection operators read in
    PAW grid and wavefunctions read in

   number of l-projection  operators is LMAX  =           4
   number of lm-projection operators is LMMAX =           8

 Optimization of the real space projectors (new method)

 maximal supplied QI-value         = 15.12
 optimisation between [QCUT,QGAM] = [ 10.13, 20.41] = [ 28.73,116.64] Ry 
 Optimized for a Real-space Cutoff    1.51 Angstroem

   l    n(q)    QCUT    max X(q) W(low)/X(q) W(high)/X(q)  e(spline) 
   2      8    10.129     3.643    0.70E-04    0.31E-04    0.46E-07
   2      8    10.129    46.462    0.38E-03    0.30E-03    0.31E-06
   0      9    10.129    13.796    0.15E-04    0.15E-04    0.52E-08
   0      9    10.129    57.669    0.21E-03    0.23E-03    0.10E-06
   1      9    10.129     7.440    0.53E-04    0.27E-04    0.35E-07
   1      9    10.129    10.255    0.23E-03    0.35E-04    0.13E-06
 Optimization of the real space projectors (new method)

 maximal supplied QI-value         = 14.36
 optimisation between [QCUT,QGAM] = [ 10.20, 20.39] = [ 29.12,116.47] Ry 
 Optimized for a Real-space Cutoff    1.70 Angstroem

   l    n(q)    QCUT    max X(q) W(low)/X(q) W(high)/X(q)  e(spline) 
   2      9    10.197   134.116    0.35E-03    0.14E-03    0.40E-06
   2      9    10.197   130.192    0.35E-03    0.14E-03    0.40E-06
   0     10    10.197    60.310    0.56E-04    0.27E-04    0.29E-06
   0     10    10.197    39.218    0.49E-04    0.25E-04    0.27E-06
   1     10    10.197    18.439    0.45E-04    0.60E-04    0.11E-06
   1     10    10.197    12.760    0.35E-04    0.49E-04    0.91E-07
 Optimization of the real space projectors (new method)

 maximal supplied QI-value         = 25.13
 optimisation between [QCUT,QGAM] = [ 10.05, 20.36] = [ 28.30,116.06] Ry 
 Optimized for a Real-space Cutoff    1.30 Angstroem

   l    n(q)    QCUT    max X(q) W(low)/X(q) W(high)/X(q)  e(spline) 
   0      8    10.053   115.676    0.49E-03    0.72E-03    0.18E-06
   0      8    10.053    87.132    0.49E-03    0.71E-03    0.18E-06
   1      7    10.053     4.429    0.32E-03    0.31E-03    0.18E-06
   1      7    10.053     2.733    0.23E-03    0.19E-03    0.20E-06
 Optimization of the real space projectors (new method)

 maximal supplied QI-value         = 15.12
 optimisation between [QCUT,QGAM] = [ 10.13, 20.41] = [ 28.73,116.64] Ry 
 Optimized for a Real-space Cutoff    1.51 Angstroem

   l    n(q)    QCUT    max X(q) W(low)/X(q) W(high)/X(q)  e(spline) 
   2      8    10.129     3.643    0.70E-04    0.31E-04    0.46E-07
   2      8    10.129    46.462    0.38E-03    0.30E-03    0.31E-06
   0      9    10.129    13.796    0.15E-04    0.15E-04    0.52E-08
   0      9    10.129    57.669    0.21E-03    0.23E-03    0.10E-06
   1      9    10.129     7.440    0.53E-04    0.27E-04    0.35E-07
   1      9    10.129    10.255    0.23E-03    0.35E-04    0.13E-06
 Optimization of the real space projectors (new method)

 maximal supplied QI-value         = 24.76
 optimisation between [QCUT,QGAM] = [ 10.15, 20.30] = [ 28.85,115.39] Ry 
 Optimized for a Real-space Cutoff    1.38 Angstroem

   l    n(q)    QCUT    max X(q) W(low)/X(q) W(high)/X(q)  e(spline) 
   0      8    10.150    20.381    0.22E-03    0.32E-03    0.29E-06
   0      8    10.150    15.268    0.23E-03    0.35E-03    0.30E-06
   1      8    10.150     5.964    0.46E-03    0.53E-03    0.21E-06
   1      8    10.150     5.382    0.38E-03    0.45E-03    0.19E-06
 -----------------------------------------------------------------------------
|                                                                             |
|               ----> ADVICE to this user running VASP <----                  |
|                                                                             |
|     You enforced a specific xc type in the INCAR file but a different       |
|     type was found in the POTCAR file.                                      |
|     I HOPE YOU KNOW WHAT YOU ARE DOING!                                     |
|                                                                             |
 -----------------------------------------------------------------------------

 PAW_PBE Pt 05Jan2001                   :
 energy of atom  1       EATOM= -729.1171
 kinetic energy error for atom=    0.0056 (will be added to EATOM!!)
  PAW_PBE Ir 06Sep2000                  :
 energy of atom  2       EATOM= -560.1833
 kinetic energy error for atom=    0.0041 (will be added to EATOM!!)
  PAW_PBE C 08Apr2002                   :
 energy of atom  3       EATOM= -147.1560
 kinetic energy error for atom=    0.0288 (will be added to EATOM!!)
 PAW_PBE Pt 05Jan2001                   :
 energy of atom  4       EATOM= -729.1171
 kinetic energy error for atom=    0.0056 (will be added to EATOM!!)
  PAW_PBE O 08Apr2002                   :
 energy of atom  5       EATOM= -432.3788
 kinetic energy error for atom=    0.1156 (will be added to EATOM!!)


 POSCAR: core level of atom 525
  positions in direct lattice
  velocities in cartesian coordinates
  No initial velocities read in
 exchange correlation table for  LEXCH =       43
   RHO(1)=    0.500       N(1)  =     2000
   RHO(2)=  100.500       N(2)  =     4000



--------------------------------------------------------------------------------------------------------


 ion  position               nearest neighbor table
   1  0.681  0.515  0.481- 379 2.43 536 2.54 528 2.64 530 2.65 533 2.69 534 2.74
   2  0.000  0.000  0.000-  11 2.74  12 2.74  74 2.74  82 2.74   3 2.74  10 2.74  91 2.74  83 2.74
                           163 2.74
   3  0.889  0.000  0.000-  12 2.74  13 2.74  74 2.74  75 2.74   2 2.74   4 2.74  83 2.74  84 2.74
                           155 2.74
   4  0.778  0.000  0.000-  13 2.74  14 2.74  75 2.74  76 2.74   3 2.74   5 2.74  85 2.74  84 2.74
                           156 2.74
   5  0.667  0.000  0.000-  15 2.74  14 2.74  76 2.74  77 2.74   6 2.74   4 2.74  86 2.74  85 2.74
                           157 2.74
   6  0.556  0.000  0.000-  77 2.74  15 2.74  78 2.74   5 2.74  86 2.74 158 2.74  16 2.74  87 2.74
                             7 2.74
   7  0.444  0.000  0.000-  17 2.74  16 2.74  79 2.74   8 2.74  88 2.74  87 2.74 159 2.74  78 2.74
                             6 2.74
   8  0.333  0.000  0.000-  79 2.74  18 2.74  17 2.74  80 2.74   7 2.74   9 2.74  88 2.74  89 2.74
                           160 2.74
   9  0.222  0.000  0.000-  18 2.74  19 2.74  80 2.74  81 2.74   8 2.74  10 2.74  89 2.74  90 2.74
                           161 2.74
  10  0.111  0.000  0.000-  11 2.74  19 2.74  81 2.74  82 2.74   2 2.74   9 2.74  90 2.74  91 2.74
                           162 2.74
  11  0.000  0.889  0.000-   2 2.74  10 2.74  20 2.74  21 2.74  12 2.74  19 2.74  91 2.74 100 2.74
                            92 2.74
  12  0.889  0.889  0.000-   2 2.74   3 2.74  21 2.74  22 2.74  11 2.74  13 2.74  83 2.74  92 2.74
                            93 2.74
  13  0.778  0.889  0.000-   3 2.74   4 2.74  22 2.74  23 2.74  12 2.74  14 2.74  84 2.74  94 2.74
                            93 2.74
  14  0.667  0.889  0.000-  24 2.74   5 2.74  23 2.74   4 2.74  15 2.74  13 2.74  85 2.74  95 2.74
                            94 2.74
  15  0.556  0.889  0.000-   5 2.74   6 2.74  24 2.74  14 2.74  86 2.74  95 2.74  25 2.74  96 2.74
                            16 2.74
  16  0.444  0.889  0.000-  26 2.74  25 2.74   7 2.74  17 2.74  87 2.74  97 2.74  96 2.74   6 2.74
                            15 2.74
  17  0.333  0.889  0.000-   7 2.74   8 2.74  26 2.74  27 2.74  16 2.74  18 2.74  88 2.74  97 2.74
                            98 2.74
  18  0.222  0.889  0.000-   8 2.74   9 2.74  27 2.74  28 2.74  17 2.74  19 2.74  89 2.74  98 2.74
                            99 2.74
  19  0.111  0.889  0.000-   9 2.74  10 2.74  20 2.74  28 2.74  11 2.74  18 2.74  90 2.74  99 2.74
                           100 2.74
  20  0.000  0.778  0.000-  11 2.74  19 2.74  29 2.74  30 2.74  21 2.74  28 2.74 100 2.74 109 2.74
                           101 2.74
  21  0.889  0.778  0.000-  11 2.74  12 2.74  30 2.74  31 2.74  20 2.74  22 2.74  92 2.74 101 2.74
                           102 2.74
  22  0.778  0.778  0.000-  12 2.74  13 2.74  31 2.74  32 2.74  21 2.74  23 2.74  93 2.74 103 2.74
                           102 2.74
  23  0.667  0.778  0.000-  33 2.74  14 2.74  32 2.74  13 2.74  24 2.74  22 2.74  94 2.74 104 2.74
                           103 2.74
  24  0.556  0.778  0.000-  14 2.74  15 2.74  33 2.74  23 2.74  95 2.74 104 2.74  34 2.74 105 2.74
                            25 2.74
  25  0.444  0.778  0.000-  35 2.74  34 2.74  16 2.74  26 2.74  96 2.74 106 2.74 105 2.74  15 2.74
                            24 2.74
  26  0.333  0.778  0.000-  16 2.74  17 2.74  35 2.74  36 2.74  25 2.74  27 2.74  97 2.74 106 2.74
                           107 2.74
  27  0.222  0.778  0.000-  17 2.74  18 2.74  36 2.74  37 2.74  26 2.74  28 2.74  98 2.74 107 2.74
                           108 2.74
  28  0.111  0.778  0.000-  18 2.74  19 2.74  29 2.74  37 2.74  20 2.74  27 2.74  99 2.74 108 2.74
                           109 2.74
  29  0.000  0.667  0.000-  38 2.74  39 2.74  20 2.74  28 2.74  30 2.74  37 2.74 109 2.74 118 2.74
                           110 2.74
  30  0.889  0.667  0.000-  39 2.74  40 2.74  20 2.74  21 2.74  29 2.74  31 2.74 101 2.74 110 2.74
                           111 2.74
  31  0.778  0.667  0.000-  40 2.74  41 2.74  21 2.74  22 2.74  30 2.74  32 2.74 102 2.74 112 2.74
                           111 2.74
  32  0.667  0.667  0.000-  41 2.74  42 2.74  22 2.74  23 2.74  33 2.74  31 2.74 103 2.74 113 2.74
                           112 2.74
  33  0.556  0.667  0.000-  42 2.74  23 2.74  24 2.74  32 2.74 104 2.74 113 2.74  43 2.74 114 2.74
                            34 2.74
  34  0.444  0.667  0.000-  43 2.74  44 2.74  25 2.74  35 2.74 105 2.74 115 2.74 114 2.74  24 2.74
                            33 2.74
  35  0.333  0.667  0.000-  44 2.74  25 2.74  45 2.74  26 2.74  34 2.74  36 2.74 106 2.74 115 2.74
                           116 2.74
  36  0.222  0.667  0.000-  45 2.74  46 2.74  26 2.74  27 2.74  35 2.74  37 2.74 107 2.74 116 2.74
                           117 2.74
  37  0.111  0.667  0.000-  46 2.74  38 2.74  27 2.74  28 2.74  29 2.74  36 2.74 108 2.74 117 2.74
                           118 2.74
  38  0.000  0.556  0.000-  29 2.74  37 2.74  39 2.74  46 2.74 118 2.74 119 2.74 127 2.74  48 2.74
                            47 2.74
  39  0.889  0.556  0.000-  30 2.74  29 2.74  38 2.74  40 2.74 110 2.74 120 2.74 119 2.74  49 2.74
                            48 2.74
  40  0.778  0.556  0.000-  31 2.74  30 2.74  39 2.74  41 2.74 111 2.74 121 2.74 120 2.74  50 2.74
                            49 2.74
  41  0.667  0.556  0.000-  32 2.74  31 2.74  42 2.74  40 2.74 112 2.74 122 2.74 121 2.74  51 2.74
                            50 2.74
  42  0.556  0.556  0.000-  32 2.74  33 2.74  41 2.74 113 2.74 122 2.74 123 2.74  52 2.74  51 2.74
                            43 2.74
  43  0.444  0.556  0.000-  34 2.74  44 2.74 114 2.74 124 2.74 123 2.74  53 2.74  33 2.74  52 2.74
                            42 2.74
  44  0.333  0.556  0.000-  34 2.74  35 2.74  43 2.74  45 2.74 115 2.74 124 2.74 125 2.74  54 2.74
                            53 2.74
  45  0.222  0.556  0.000-  36 2.74  35 2.74  44 2.74  46 2.74 116 2.74 125 2.74 126 2.74  55 2.74
                            54 2.74
  46  0.111  0.556  0.000-  37 2.74  36 2.74  38 2.74  45 2.74 117 2.74 126 2.74 127 2.74  47 2.74
                            55 2.74
  47  0.000  0.444  0.000-  56 2.74  57 2.74  48 2.74  55 2.74 136 2.74 128 2.74  46 2.74 127 2.74
                            38 2.74
  48  0.889  0.444  0.000-  57 2.74  58 2.74  47 2.74  49 2.74 128 2.74 129 2.74  38 2.74 119 2.74
                            39 2.74
  49  0.778  0.444  0.000-  58 2.74  59 2.74  48 2.74  50 2.74 130 2.74 129 2.74  39 2.74 120 2.74
                            40 2.74
  50  0.667  0.444  0.000-  59 2.74  60 2.74  51 2.74  49 2.74 131 2.74 130 2.74  40 2.74 121 2.74
                            41 2.74
  51  0.556  0.444  0.000-  60 2.74  50 2.74 131 2.74  41 2.74  61 2.74 122 2.74 132 2.74  42 2.74
                            52 2.74
  52  0.444  0.444  0.000-  61 2.74  62 2.74  53 2.74 133 2.74 132 2.74 123 2.74  42 2.74  43 2.74
                            51 2.74
  53  0.333  0.444  0.000-  62 2.74  63 2.74  52 2.74  54 2.74 133 2.74 134 2.74  43 2.74 124 2.74
                            44 2.74
  54  0.222  0.444  0.000-  63 2.74  64 2.74  53 2.74  55 2.74 134 2.74 135 2.74  44 2.74 125 2.74
                            45 2.74
  55  0.111  0.444  0.000-  64 2.74  56 2.74  47 2.74  54 2.74 135 2.74 136 2.74  45 2.74 126 2.74
                            46 2.74
  56  0.000  0.333  0.000-  47 2.74  55 2.74  65 2.74  66 2.74  57 2.74  64 2.74 136 2.74 137 2.74
                           145 2.74
  57  0.889  0.333  0.000-  48 2.74  47 2.74  66 2.74  67 2.74  56 2.74  58 2.74 128 2.74 138 2.74
                           137 2.74
  58  0.778  0.333  0.000-  49 2.74  48 2.74  67 2.74  68 2.74  57 2.74  59 2.74 129 2.74 139 2.74
                           138 2.74
  59  0.667  0.333  0.000-  50 2.74  49 2.74  69 2.74  68 2.74  60 2.74  58 2.74 130 2.74 140 2.74
                           139 2.74
  60  0.556  0.333  0.000-  50 2.74  51 2.74  69 2.74  59 2.74 131 2.74 140 2.74  70 2.74 141 2.74
                            61 2.74
  61  0.444  0.333  0.000-  52 2.74  71 2.74  70 2.74  62 2.74 132 2.74 142 2.74 141 2.74  51 2.74
                            60 2.74
  62  0.333  0.333  0.000-  52 2.74  53 2.74  71 2.74  72 2.74  61 2.74  63 2.74 133 2.74 142 2.74
                           143 2.74
  63  0.222  0.333  0.000-  54 2.74  53 2.74  72 2.74  73 2.74  62 2.74  64 2.74 134 2.74 143 2.74
                           144 2.74
  64  0.111  0.333  0.000-  55 2.74  54 2.74  65 2.74  73 2.74  56 2.74  63 2.74 135 2.74 144 2.74
                           145 2.74
  65  0.000  0.222  0.000-  56 2.74  64 2.74  74 2.74  75 2.74  66 2.74  73 2.74 145 2.74 146 2.74
                           154 2.74
  66  0.889  0.222  0.000-  56 2.74  57 2.74  75 2.74  76 2.74  65 2.74  67 2.74 137 2.74 147 2.74
                           146 2.74
  67  0.778  0.222  0.000-  57 2.74  58 2.74  76 2.74  77 2.74  66 2.74  68 2.74 138 2.74 148 2.74
                           147 2.74
  68  0.667  0.222  0.000-  78 2.74  59 2.74  77 2.74  58 2.74  69 2.74  67 2.74 139 2.74 149 2.74
                           148 2.74
  69  0.556  0.222  0.000-  59 2.74  60 2.74  78 2.74  68 2.74 140 2.74 149 2.74  79 2.74 150 2.74
                            70 2.74
  70  0.444  0.222  0.000-  80 2.74  79 2.74  61 2.74  71 2.74 141 2.74 151 2.74 150 2.74  60 2.74
                            69 2.74
  71  0.333  0.222  0.000-  61 2.74  62 2.74  80 2.74  81 2.74  70 2.74  72 2.74 142 2.74 151 2.74
                           152 2.74
  72  0.222  0.222  0.000-  62 2.74  63 2.74  81 2.74  82 2.74  71 2.74  73 2.74 143 2.74 152 2.74
                           153 2.74
  73  0.111  0.222  0.000-  63 2.74  64 2.74  74 2.74  82 2.74  65 2.74  72 2.74 144 2.74 153 2.74
                           154 2.74
  74  0.000  0.111  0.000-   2 2.74   3 2.74  65 2.74  73 2.74  75 2.74  82 2.74 163 2.74 154 2.74
                           155 2.74
  75  0.889  0.111  0.000-   3 2.74   4 2.74  65 2.74  66 2.74  74 2.74  76 2.74 155 2.74 146 2.74
                           156 2.74
  76  0.778  0.111  0.000-   4 2.74   5 2.74  66 2.74  67 2.74  75 2.74  77 2.74 156 2.74 147 2.74
                           157 2.74
  77  0.667  0.111  0.000-   6 2.74   5 2.74  67 2.74  68 2.74  78 2.74  76 2.74 157 2.74 148 2.74
                           158 2.74
  78  0.556  0.111  0.000-  68 2.74   6 2.74  69 2.74  77 2.74 158 2.74 149 2.74   7 2.74 159 2.74
                            79 2.74
  79  0.444  0.111  0.000-   8 2.74   7 2.74  70 2.74  80 2.74 159 2.74 150 2.74 160 2.74  69 2.74
                            78 2.74
  80  0.333  0.111  0.000-  70 2.74   9 2.74   8 2.74  71 2.74  79 2.74  81 2.74 160 2.74 151 2.74
                           161 2.74
  81  0.222  0.111  0.000-   9 2.74  10 2.74  71 2.74  72 2.74  80 2.74  82 2.74 161 2.74 152 2.74
                           162 2.74
  82  0.111  0.111  0.000-   2 2.74  10 2.74  72 2.74  73 2.74  74 2.74  81 2.74 162 2.74 153 2.74
                           163 2.74
  83  0.926  0.963  0.092- 165 2.69 164 2.70 236 2.70  93 2.74  92 2.74  84 2.74  91 2.74 163 2.74
                           155 2.74  12 2.74   3 2.74   2 2.74
  84  0.815  0.963  0.092- 166 2.70 165 2.70 237 2.70  94 2.74  93 2.74  83 2.74  85 2.74 155 2.74
                           156 2.74  13 2.74   3 2.74   4 2.74
  85  0.704  0.963  0.092- 166 2.69 167 2.70 238 2.70  95 2.74  94 2.74  86 2.74  84 2.74 156 2.74
                           157 2.74  14 2.74   4 2.74   5 2.74
  86  0.593  0.963  0.092- 167 2.70 168 2.70 239 2.70  95 2.74  85 2.74 157 2.74 158 2.74  15 2.74
                             5 2.74   6 2.74  96 2.74  87 2.74
  87  0.481  0.963  0.092- 168 2.70 240 2.70 169 2.70  97 2.74  96 2.74  88 2.74 159 2.74  16 2.74
                             7 2.74 158 2.74   6 2.74  86 2.74
  88  0.370  0.963  0.092- 241 2.70 169 2.70 170 2.70  98 2.74  97 2.74  89 2.74  87 2.74 159 2.74
                           160 2.74  17 2.74   7 2.74   8 2.74
  89  0.259  0.963  0.092- 242 2.70 171 2.70 170 2.70  99 2.74  98 2.74  90 2.74  88 2.74 160 2.74
                           161 2.74  18 2.74   9 2.74   8 2.74
  90  0.148  0.963  0.092- 243 2.70 172 2.70 171 2.70 100 2.74  99 2.74  91 2.74  89 2.74 161 2.74
                           162 2.74  19 2.74  10 2.74   9 2.74
  91  0.037  0.963  0.092- 164 2.70 244 2.70 172 2.70 100 2.74  92 2.74  90 2.74  83 2.74 162 2.74
                           163 2.74  11 2.74   2 2.74  10 2.74
  92  0.926  0.852  0.092- 174 2.70 173 2.70 164 2.70 102 2.74  91 2.74 101 2.74  83 2.74  93 2.74
                           100 2.74  21 2.74  12 2.74  11 2.74
  93  0.815  0.852  0.092- 174 2.70 175 2.70 165 2.70  83 2.74  84 2.74 102 2.74 103 2.74  92 2.74
                            94 2.74  22 2.74  12 2.74  13 2.74
  94  0.704  0.852  0.092- 176 2.69 175 2.70 166 2.70 104 2.74  84 2.74  85 2.74 103 2.74  95 2.74
                            93 2.74  23 2.74  13 2.74  14 2.74
  95  0.593  0.852  0.092- 176 2.70 177 2.70 167 2.70  85 2.74  86 2.74 104 2.74  94 2.74  24 2.74
                            14 2.74  15 2.74 105 2.74  96 2.74
  96  0.481  0.852  0.092- 177 2.69 178 2.70 168 2.70  87 2.74 105 2.74 106 2.74  97 2.74  25 2.74
                            16 2.74  86 2.74  15 2.74  95 2.74
  97  0.370  0.852  0.092- 178 2.70 169 2.70 179 2.70 107 2.74  87 2.74  88 2.74 106 2.74  98 2.74
                            96 2.74  26 2.74  16 2.74  17 2.74
  98  0.259  0.852  0.092- 170 2.70 180 2.70 179 2.70 108 2.74  88 2.74  89 2.74 107 2.74  99 2.74
                            97 2.74  27 2.74  18 2.74  17 2.74
  99  0.148  0.852  0.092- 181 2.70 171 2.70 180 2.70 109 2.74  89 2.74  90 2.74 108 2.74 100 2.74
                            98 2.74  28 2.74  19 2.74  18 2.74
 100  0.037  0.852  0.092- 173 2.69 181 2.70 172 2.70 109 2.74  90 2.74  91 2.74 101 2.74  99 2.74
                            92 2.74  20 2.74  11 2.74  19 2.74
 101  0.926  0.741  0.092- 183 2.69 182 2.70 173 2.70 111 2.74 100 2.74 110 2.74  92 2.74 102 2.74
                           109 2.74  30 2.74  21 2.74  20 2.74
 102  0.815  0.741  0.092- 183 2.69 174 2.70 184 2.72  92 2.74  93 2.74 111 2.74 112 2.74 101 2.74
                           103 2.74  31 2.74  21 2.74  22 2.74
 103  0.704  0.741  0.092- 175 2.70 184 2.71 185 2.72 113 2.74  93 2.74  94 2.74 112 2.74 104 2.74
                           102 2.74  32 2.74  22 2.74  23 2.74
 104  0.593  0.741  0.092- 176 2.70 186 2.71 185 2.72  94 2.74  95 2.74 113 2.74 103 2.74  33 2.74
                            23 2.74  24 2.74 114 2.74 105 2.74
 105  0.481  0.741  0.092- 187 2.70 177 2.70 186 2.72  96 2.74 114 2.74 115 2.74 106 2.74  34 2.74
                            25 2.74  95 2.74  24 2.74 104 2.74
 106  0.370  0.741  0.092- 187 2.69 178 2.70 188 2.70 116 2.74  96 2.74  97 2.74 115 2.74 107 2.74
                           105 2.74  35 2.74  25 2.74  26 2.74
 107  0.259  0.741  0.092- 188 2.70 189 2.70 179 2.70 117 2.74  97 2.74  98 2.74 116 2.74 108 2.74
                           106 2.74  36 2.74  27 2.74  26 2.74
 108  0.148  0.741  0.092- 190 2.70 189 2.70 180 2.70 118 2.74  98 2.74  99 2.74 117 2.74 109 2.74
                           107 2.74  37 2.74  28 2.74  27 2.74
 109  0.037  0.741  0.092- 182 2.69 190 2.70 181 2.70 118 2.74  99 2.74 100 2.74 110 2.74 108 2.74
                           101 2.74  29 2.74  20 2.74  28 2.74
 110  0.926  0.630  0.092- 192 2.70 182 2.70 191 2.70 120 2.74 109 2.74 119 2.74 101 2.74 111 2.74
                           118 2.74  39 2.74  30 2.74  29 2.74
 111  0.815  0.630  0.092- 183 2.69 192 2.70 193 2.71 101 2.74 102 2.74 120 2.74 121 2.74 110 2.74
                           112 2.74  40 2.74  30 2.74  31 2.74
 112  0.704  0.630  0.092- 184 2.71 193 2.71 194 2.73 122 2.74 102 2.74 103 2.74 121 2.74 113 2.74
                           111 2.74  41 2.74  31 2.74  32 2.74
 113  0.593  0.630  0.092- 195 2.71 185 2.71 194 2.73 103 2.74 104 2.74 122 2.74 112 2.74  42 2.74
                            32 2.74  33 2.74 123 2.74 114 2.74
 114  0.481  0.630  0.092- 196 2.70 186 2.71 195 2.71 105 2.74 123 2.74 124 2.74 115 2.74  43 2.74
                            34 2.74 104 2.74  33 2.74 113 2.74
 115  0.370  0.630  0.092- 187 2.70 197 2.70 196 2.71 125 2.74 105 2.74 106 2.74 124 2.74 116 2.74
                           114 2.74  44 2.74  34 2.74  35 2.74
 116  0.259  0.630  0.092- 197 2.69 188 2.70 198 2.70 126 2.74 106 2.74 107 2.74 125 2.74 117 2.74
                           115 2.74  45 2.74  36 2.74  35 2.74
 117  0.148  0.630  0.092- 198 2.70 199 2.70 189 2.70 127 2.74 107 2.74 108 2.74 126 2.74 118 2.74
                           116 2.74  46 2.74  37 2.74  36 2.74
 118  0.037  0.630  0.092- 191 2.69 190 2.70 199 2.70 127 2.74 108 2.74 109 2.74 119 2.74 117 2.74
                           110 2.74  38 2.74  29 2.74  37 2.74
 119  0.926  0.519  0.092- 201 2.70 191 2.70 200 2.70 118 2.74 110 2.74 120 2.74 127 2.74  39 2.74
                            38 2.74 129 2.74  48 2.74 128 2.74
 120  0.815  0.519  0.092- 192 2.70 201 2.70 202 2.71 110 2.74 111 2.74 119 2.74 121 2.74  39 2.74
                            40 2.74 130 2.74  49 2.74 129 2.74
 121  0.704  0.519  0.092- 193 2.70 202 2.71 203 2.73 112 2.74 111 2.74 122 2.74 120 2.74  40 2.74
                            41 2.74 131 2.74  50 2.74 130 2.74
 122  0.593  0.519  0.092- 204 2.71 194 2.72 203 2.73 113 2.74 112 2.74 121 2.74  41 2.74  42 2.74
                            51 2.74 132 2.74 131 2.74 123 2.74
 123  0.481  0.519  0.092- 205 2.71 204 2.71 195 2.71 114 2.74 124 2.74  43 2.74 133 2.74 113 2.74
                            52 2.74  42 2.74 132 2.74 122 2.74
 124  0.370  0.519  0.092- 206 2.70 196 2.70 205 2.72 115 2.74 114 2.74 125 2.74 123 2.74  43 2.74
                            44 2.74 134 2.74  53 2.74 133 2.74
 125  0.259  0.519  0.092- 206 2.69 197 2.70 207 2.70 116 2.74 115 2.74 126 2.74 124 2.74  45 2.74
                            44 2.74 135 2.74  54 2.74 134 2.74
 126  0.148  0.519  0.092- 207 2.69 198 2.70 208 2.70 117 2.74 116 2.74 127 2.74 125 2.74  46 2.74
                            45 2.74 136 2.74  55 2.74 135 2.74
 127  0.037  0.519  0.092- 200 2.70 208 2.70 199 2.70 118 2.74 117 2.74 126 2.74 119 2.74  46 2.74
                            38 2.74 128 2.74  47 2.74 136 2.74
 128  0.926  0.407  0.092- 210 2.70 200 2.70 209 2.70 138 2.74 137 2.74 129 2.74 136 2.74  57 2.74
                            48 2.74  47 2.74 127 2.74 119 2.74
 129  0.815  0.407  0.092- 211 2.69 201 2.70 210 2.70 139 2.74 138 2.74 128 2.74 130 2.74  58 2.74
                            48 2.74  49 2.74 119 2.74 120 2.74
 130  0.704  0.407  0.092- 211 2.70 212 2.70 202 2.71 140 2.74 139 2.74 131 2.74 129 2.74  59 2.74
                            49 2.74  50 2.74 120 2.74 121 2.74
 131  0.593  0.407  0.092- 213 2.71 212 2.71 203 2.72 140 2.74 130 2.74  60 2.74  50 2.74  51 2.74
                           121 2.74 141 2.74 122 2.74 132 2.74
 132  0.481  0.407  0.092- 213 2.71 214 2.71 204 2.72 142 2.74 141 2.74 133 2.74  61 2.74  52 2.74
                            51 2.74 122 2.74 123 2.74 131 2.74
 133  0.370  0.407  0.092- 215 2.70 205 2.70 214 2.72 143 2.74 142 2.74 134 2.74 132 2.74  62 2.74
                            52 2.74  53 2.74 123 2.74 124 2.74
 134  0.259  0.407  0.092- 206 2.69 215 2.69 216 2.70 144 2.74 143 2.74 135 2.74 133 2.74  63 2.74
                            54 2.74  53 2.74 124 2.74 125 2.74
 135  0.148  0.407  0.092- 216 2.69 207 2.70 217 2.70 145 2.74 144 2.74 136 2.74 134 2.74  64 2.74
                            55 2.74  54 2.74 125 2.74 126 2.74
 136  0.037  0.407  0.092- 209 2.70 217 2.70 208 2.70 145 2.74 137 2.74 135 2.74 128 2.74  56 2.74
                            47 2.74  55 2.74 126 2.74 127 2.74
 137  0.926  0.296  0.092- 219 2.70 209 2.70 218 2.70 147 2.74 136 2.74 146 2.74 128 2.74 138 2.74
                           145 2.74  66 2.74  56 2.74  57 2.74
 138  0.815  0.296  0.092- 220 2.70 210 2.70 219 2.70 128 2.74 129 2.74 147 2.74 148 2.74 137 2.74
                           139 2.74  67 2.74  57 2.74  58 2.74
 139  0.704  0.296  0.092- 221 2.70 211 2.70 220 2.70 149 2.74 129 2.74 130 2.74 148 2.74 140 2.74
                           138 2.74  68 2.74  58 2.74  59 2.74
 140  0.593  0.296  0.092- 222 2.69 221 2.70 212 2.71 130 2.74 131 2.74 149 2.74 139 2.74  69 2.74
                            59 2.74  60 2.74 150 2.74 141 2.74
 141  0.481  0.296  0.092- 222 2.70 213 2.71 223 2.71 132 2.74 150 2.74 151 2.74 142 2.74  70 2.74
                            61 2.74 131 2.74  60 2.74 140 2.74
 142  0.370  0.296  0.092- 224 2.70 223 2.71 214 2.72 152 2.74 132 2.74 133 2.74 151 2.74 143 2.74
                           141 2.74  71 2.74  61 2.74  62 2.74
 143  0.259  0.296  0.092- 215 2.69 224 2.69 225 2.70 153 2.74 133 2.74 134 2.74 152 2.74 144 2.74
                           142 2.74  72 2.74  62 2.74  63 2.74
 144  0.148  0.296  0.092- 216 2.69 225 2.70 226 2.70 154 2.74 134 2.74 135 2.74 153 2.74 145 2.74
                           143 2.74  73 2.74  63 2.74  64 2.74
 145  0.037  0.296  0.092- 226 2.70 217 2.70 218 2.70 154 2.74 135 2.74 136 2.74 146 2.74 144 2.74
                           137 2.74  65 2.74  56 2.74  64 2.74
 146  0.926  0.185  0.092- 218 2.70 227 2.70 228 2.70 155 2.74 156 2.74 145 2.74 137 2.74 147 2.74
                           154 2.74  75 2.74  65 2.74  66 2.74
 147  0.815  0.185  0.092- 219 2.70 229 2.70 228 2.70 156 2.74 157 2.74 137 2.74 138 2.74 146 2.74
                           148 2.74  76 2.74  66 2.74  67 2.74
 148  0.704  0.185  0.092- 220 2.70 230 2.70 229 2.70 157 2.74 158 2.74 139 2.74 138 2.74 149 2.74
                           147 2.74  77 2.74  67 2.74  68 2.74
 149  0.593  0.185  0.092- 221 2.70 231 2.70 230 2.70 158 2.74 139 2.74 140 2.74 148 2.74  78 2.74
                            68 2.74  69 2.74 159 2.74 150 2.74
 150  0.481  0.185  0.092- 222 2.69 232 2.70 231 2.70 159 2.74 160 2.74 141 2.74 151 2.74  79 2.74
                            70 2.74 140 2.74  69 2.74 149 2.74
 151  0.370  0.185  0.092- 232 2.70 233 2.70 223 2.72 160 2.74 161 2.74 142 2.74 141 2.74 152 2.74
                           150 2.74  80 2.74  70 2.74  71 2.74
 152  0.259  0.185  0.092- 224 2.69 233 2.70 234 2.70 161 2.74 162 2.74 143 2.74 142 2.74 153 2.74
                           151 2.74  81 2.74  71 2.74  72 2.74
 153  0.148  0.185  0.092- 225 2.69 234 2.70 235 2.70 162 2.74 163 2.74 144 2.74 143 2.74 154 2.74
                           152 2.74  82 2.74  72 2.74  73 2.74
 154  0.037  0.185  0.092- 226 2.70 235 2.70 227 2.70 163 2.74 155 2.74 145 2.74 144 2.74 153 2.74
                           146 2.74  74 2.74  65 2.74  73 2.74
 155  0.926  0.074  0.092- 237 2.70 227 2.70 236 2.70 146 2.74 154 2.74 156 2.74 163 2.74  84 2.74
                            83 2.74  75 2.74  74 2.74   3 2.74
 156  0.815  0.074  0.092- 237 2.70 238 2.70 228 2.70 147 2.74 146 2.74 155 2.74 157 2.74  85 2.74
                            84 2.74  76 2.74  75 2.74   4 2.74
 157  0.704  0.074  0.092- 238 2.70 229 2.70 239 2.70 148 2.74 147 2.74 158 2.74 156 2.74  86 2.74
                            85 2.74  77 2.74  76 2.74   5 2.74
 158  0.593  0.074  0.092- 230 2.70 240 2.70 239 2.70 149 2.74 148 2.74 157 2.74  86 2.74  78 2.74
                            77 2.74   6 2.74  87 2.74 159 2.74
 159  0.481  0.074  0.092- 231 2.69 241 2.70 240 2.70 150 2.74 160 2.74  88 2.74  87 2.74  79 2.74
                             7 2.74 149 2.74  78 2.74 158 2.74
 160  0.370  0.074  0.092- 232 2.69 242 2.70 241 2.70 151 2.74 150 2.74 161 2.74 159 2.74  89 2.74
                            88 2.74  80 2.74  79 2.74   8 2.74
 161  0.259  0.074  0.092- 233 2.69 242 2.70 243 2.70 152 2.74 151 2.74 162 2.74 160 2.74  90 2.74
                            89 2.74  81 2.74  80 2.74   9 2.74
 162  0.148  0.074  0.092- 234 2.69 243 2.70 244 2.70 153 2.74 152 2.74 163 2.74 161 2.74  91 2.74
                            90 2.74  82 2.74  81 2.74  10 2.74
 163  0.037  0.074  0.092- 235 2.70 236 2.70 244 2.70 154 2.74 153 2.74 162 2.74 155 2.74  83 2.74
                            91 2.74  74 2.74  82 2.74   2 2.74
 164  0.963  0.926  0.181- 255 2.69 254 2.70  91 2.70  83 2.70 245 2.70  92 2.70 244 2.73 172 2.74
                           236 2.74 165 2.74 173 2.74 174 2.74
 165  0.852  0.926  0.181- 256 2.69 255 2.69  83 2.69  84 2.70 246 2.70  93 2.70 236 2.74 164 2.74
                           237 2.74 174 2.74 166 2.74 175 2.74
 166  0.741  0.926  0.181- 256 2.69 257 2.69  85 2.69  84 2.70  94 2.70 247 2.70 238 2.74 237 2.74
                           176 2.74 167 2.74 175 2.74 165 2.74
 167  0.630  0.926  0.181- 257 2.69  86 2.70 258 2.70  85 2.70 248 2.70  95 2.70 239 2.74 168 2.74
                           238 2.74 177 2.74 166 2.74 176 2.74
 168  0.519  0.926  0.182- 258 2.69 259 2.70 249 2.70  87 2.70  86 2.70  96 2.70 240 2.74 177 2.74
                           167 2.74 239 2.74 169 2.74 178 2.74
 169  0.407  0.926  0.182- 250 2.70 259 2.70 260 2.70  97 2.70  88 2.70  87 2.70 241 2.74 178 2.74
                           179 2.74 170 2.74 240 2.74 168 2.74
 170  0.296  0.926  0.182- 260 2.70 251 2.70 261 2.70  98 2.70  89 2.70  88 2.70 180 2.74 241 2.74
                           179 2.74 242 2.74 171 2.74 169 2.74
 171  0.185  0.926  0.182- 252 2.70 262 2.70 261 2.70  99 2.70  89 2.70  90 2.70 181 2.74 242 2.74
                           170 2.74 180 2.74 243 2.74 172 2.74
 172  0.074  0.926  0.182- 254 2.69 253 2.70 262 2.70  90 2.70  91 2.70 100 2.70 243 2.74 173 2.74
                           164 2.74 244 2.74 181 2.74 171 2.74
 173  0.963  0.815  0.181- 264 2.69 100 2.69 263 2.70  92 2.70 254 2.70 101 2.70 172 2.74 181 2.74
                           164 2.74 183 2.74 182 2.74 174 2.74
 174  0.852  0.815  0.181- 265 2.68  92 2.70  93 2.70 264 2.70 102 2.70 255 2.70 175 2.74 183 2.74
                           165 2.74 164 2.74 173 2.74 184 2.76
 175  0.741  0.815  0.181- 266 2.68 265 2.69  93 2.70  94 2.70 103 2.70 256 2.70 174 2.74 176 2.74
                           184 2.74 166 2.74 165 2.74 185 2.74
 176  0.630  0.815  0.181- 266 2.68 267 2.69  94 2.69  95 2.70 104 2.70 257 2.70 175 2.74 186 2.74
                           166 2.74 177 2.74 167 2.74 185 2.74
 177  0.518  0.815  0.181- 267 2.68  96 2.69  95 2.70 105 2.70 268 2.70 258 2.70 168 2.74 178 2.74
                           187 2.74 167 2.74 176 2.74 186 2.75
 178  0.407  0.815  0.181- 268 2.69 269 2.70  97 2.70 259 2.70  96 2.70 106 2.70 169 2.74 187 2.74
                           179 2.74 177 2.74 168 2.74 188 2.74
 179  0.296  0.815  0.182- 270 2.70 260 2.70 269 2.70  98 2.70  97 2.70 107 2.70 188 2.74 180 2.74
                           170 2.74 169 2.74 178 2.74 189 2.74
 180  0.185  0.815  0.182- 261 2.70 270 2.70 271 2.70  98 2.70 108 2.70  99 2.70 170 2.74 179 2.74
                           181 2.74 189 2.74 190 2.74 171 2.74
 181  0.074  0.815  0.182- 263 2.69 271 2.70 262 2.70  99 2.70 100 2.70 109 2.70 171 2.74 182 2.74
                           180 2.74 173 2.74 172 2.74 190 2.74
 182  0.963  0.704  0.181- 273 2.69 109 2.69 110 2.70 263 2.70 272 2.70 101 2.70 190 2.74 181 2.74
                           191 2.74 173 2.74 183 2.74 192 2.75
 183  0.852  0.704  0.181- 274 2.67 101 2.69 102 2.69 111 2.69 273 2.70 264 2.71 174 2.74 173 2.74
                           192 2.74 182 2.74 193 2.75 184 2.76
 184  0.740  0.703  0.182- 274 2.69 275 2.70 265 2.70 112 2.71 103 2.71 102 2.72 185 2.73 194 2.73
                           193 2.74 175 2.74 174 2.76 183 2.76
 185  0.630  0.704  0.182- 266 2.70 113 2.71 103 2.72 104 2.72 184 2.73 186 2.73 195 2.73 194 2.74
                           276 2.74 275 2.74 175 2.74 176 2.74
 186  0.519  0.703  0.182- 267 2.70 277 2.70 276 2.70 104 2.71 114 2.71 105 2.72 195 2.73 185 2.73
                           176 2.74 196 2.74 187 2.75 177 2.75
 187  0.407  0.704  0.181- 277 2.68 106 2.69 105 2.70 115 2.70 278 2.70 268 2.70 178 2.74 177 2.74
                           188 2.74 197 2.74 196 2.75 186 2.75
 188  0.296  0.704  0.181- 278 2.69 107 2.70 269 2.70 279 2.70 116 2.70 106 2.70 189 2.74 179 2.74
                           197 2.74 198 2.74 187 2.74 178 2.74
 189  0.185  0.704  0.182- 279 2.70 280 2.70 270 2.70 108 2.70 107 2.70 117 2.70 188 2.74 190 2.74
                           180 2.74 179 2.74 198 2.74 199 2.74
 190  0.074  0.704  0.182- 272 2.69 280 2.70 271 2.70 108 2.70 118 2.70 109 2.70 189 2.74 182 2.74
                           180 2.74 191 2.74 199 2.74 181 2.74
 191  0.963  0.593  0.181- 282 2.69 118 2.69 272 2.70 119 2.70 281 2.70 110 2.70 199 2.74 190 2.74
                           200 2.74 182 2.74 201 2.74 192 2.74
 192  0.852  0.593  0.181- 283 2.68 120 2.70 273 2.70 110 2.70 111 2.70 282 2.70 201 2.74 202 2.74
                           183 2.74 191 2.74 182 2.75 193 2.75
 193  0.740  0.592  0.182- 274 2.69 283 2.70 121 2.70 112 2.71 111 2.71 284 2.73 203 2.73 194 2.74
                           202 2.74 184 2.74 192 2.75 183 2.75
 194  0.629  0.592  0.183- 285 2.68 122 2.72 113 2.73 112 2.73 184 2.73 204 2.73 195 2.73 193 2.74
                           185 2.74 275 2.74 203 2.74 284 2.74
 195  0.519  0.593  0.182- 285 2.70 113 2.71 114 2.71 123 2.71 286 2.72 186 2.73 185 2.73 194 2.73
                           204 2.74 196 2.74 205 2.75 276 2.75
 196  0.408  0.592  0.182- 286 2.66 124 2.70 114 2.70 277 2.70 287 2.70 115 2.71 195 2.74 186 2.74
                           206 2.74 205 2.75 187 2.75 197 2.75
 197  0.296  0.593  0.181- 287 2.68 116 2.69 125 2.70 278 2.70 115 2.70 288 2.70 198 2.74 188 2.74
                           207 2.74 187 2.74 206 2.74 196 2.75
 198  0.185  0.593  0.182- 288 2.69 279 2.70 289 2.70 117 2.70 126 2.70 116 2.70 197 2.74 199 2.74
                           207 2.74 189 2.74 208 2.74 188 2.74
 199  0.074  0.593  0.182- 281 2.69 280 2.70 289 2.70 117 2.70 127 2.70 118 2.70 191 2.74 198 2.74
                           200 2.74 190 2.74 208 2.74 189 2.74
 200  0.963  0.481  0.181- 291 2.69 281 2.70 127 2.70 290 2.70 128 2.70 119 2.70 208 2.73 199 2.74
                           209 2.74 210 2.74 191 2.74 201 2.74
 201  0.852  0.481  0.181- 292 2.68 282 2.69 119 2.70 129 2.70 120 2.70 291 2.70 211 2.74 210 2.74
                           192 2.74 200 2.74 191 2.74 202 2.75
 202  0.741  0.481  0.182- 283 2.70 292 2.70 121 2.71 130 2.71 120 2.71 212 2.73 293 2.73 203 2.73
                           193 2.74 192 2.74 211 2.74 201 2.75
 203  0.630  0.481  0.183- 294 2.67 131 2.72 121 2.73 122 2.73 193 2.73 202 2.73 212 2.73 284 2.73
                           213 2.74 204 2.74 194 2.74 293 2.74
 204  0.519  0.482  0.182- 285 2.69 123 2.71 122 2.71 294 2.72 132 2.72 194 2.73 205 2.73 214 2.74
                           195 2.74 203 2.74 213 2.74 295 2.75
 205  0.407  0.481  0.182- 286 2.70 295 2.70 133 2.70 123 2.71 296 2.71 124 2.72 214 2.72 204 2.73
                           215 2.74 196 2.75 195 2.75 206 2.75
 206  0.296  0.481  0.181- 296 2.68 125 2.69 134 2.69 287 2.69 124 2.70 297 2.70 216 2.74 207 2.74
                           215 2.74 196 2.74 197 2.74 205 2.75
 207  0.185  0.481  0.181- 297 2.69 288 2.69 126 2.69 135 2.70 298 2.70 125 2.70 208 2.73 217 2.74
                           198 2.74 216 2.74 197 2.74 206 2.74
 208  0.074  0.481  0.182- 298 2.69 290 2.69 289 2.69 136 2.70 127 2.70 126 2.70 200 2.73 207 2.73
                           209 2.74 217 2.74 199 2.74 198 2.74
 209  0.963  0.370  0.181- 290 2.69 300 2.69 299 2.70 137 2.70 136 2.70 128 2.70 217 2.74 210 2.74
                           208 2.74 218 2.74 200 2.74 219 2.74
 210  0.852  0.370  0.181- 301 2.69 291 2.69 128 2.70 138 2.70 300 2.70 129 2.70 209 2.74 219 2.74
                           211 2.74 201 2.74 200 2.74 220 2.74
 211  0.741  0.370  0.181- 302 2.69 292 2.69 129 2.69 139 2.70 130 2.70 301 2.70 201 2.74 212 2.74
                           210 2.74 221 2.74 220 2.74 202 2.74
 212  0.630  0.371  0.182- 303 2.68 302 2.70 130 2.70 131 2.71 140 2.71 202 2.73 203 2.73 211 2.74
                           293 2.74 221 2.75 213 2.75 222 2.75
 213  0.518  0.370  0.182- 294 2.70 303 2.70 132 2.71 141 2.71 131 2.71 223 2.73 214 2.74 203 2.74
                           222 2.74 204 2.74 304 2.75 212 2.75
 214  0.408  0.371  0.182- 295 2.70 305 2.71 132 2.71 133 2.72 205 2.72 142 2.72 223 2.73 213 2.74
                           204 2.74 304 2.74 215 2.75 224 2.75
 215  0.296  0.370  0.181- 305 2.68 296 2.69 143 2.69 134 2.69 133 2.70 306 2.71 224 2.74 225 2.74
                           206 2.74 216 2.74 205 2.74 214 2.75
 216  0.185  0.370  0.181- 306 2.69 297 2.69 135 2.69 144 2.69 134 2.70 307 2.70 217 2.74 226 2.74
                           207 2.74 206 2.74 215 2.74 225 2.74
 217  0.074  0.370  0.181- 307 2.69 298 2.69 299 2.70 145 2.70 136 2.70 135 2.70 209 2.74 216 2.74
                           218 2.74 207 2.74 208 2.74 226 2.74
 218  0.963  0.259  0.181- 308 2.69 299 2.70 309 2.70 146 2.70 145 2.70 137 2.70 226 2.74 217 2.74
                           219 2.74 228 2.74 227 2.74 209 2.74
 219  0.852  0.259  0.181- 310 2.69 300 2.69 309 2.70 147 2.70 137 2.70 138 2.70 228 2.74 218 2.74
                           220 2.74 210 2.74 229 2.74 209 2.74
 220  0.741  0.259  0.181- 301 2.69 311 2.69 148 2.70 138 2.70 310 2.70 139 2.70 229 2.74 219 2.74
                           221 2.74 230 2.74 211 2.74 210 2.74
 221  0.630  0.259  0.181- 302 2.68 312 2.69 139 2.70 149 2.70 140 2.70 311 2.70 220 2.74 222 2.74
                           211 2.74 230 2.74 231 2.74 212 2.75
 222  0.519  0.259  0.181- 303 2.66 140 2.69 150 2.69 313 2.70 141 2.70 312 2.71 221 2.74 213 2.74
                           223 2.74 232 2.75 231 2.75 212 2.75
 223  0.408  0.260  0.182- 304 2.69 313 2.70 314 2.70 142 2.71 141 2.71 151 2.72 213 2.73 214 2.73
                           224 2.74 222 2.74 233 2.76 232 2.76
 224  0.296  0.259  0.181- 305 2.68 314 2.69 152 2.69 143 2.69 142 2.70 315 2.70 215 2.74 223 2.74
                           225 2.74 234 2.74 233 2.74 214 2.75
 225  0.185  0.259  0.181- 306 2.69 153 2.69 315 2.69 144 2.70 316 2.70 143 2.70 235 2.74 226 2.74
                           215 2.74 234 2.74 224 2.74 216 2.74
 226  0.074  0.259  0.181- 307 2.69 316 2.69 308 2.70 154 2.70 145 2.70 144 2.70 218 2.74 227 2.74
                           216 2.74 225 2.74 217 2.74 235 2.74
 227  0.963  0.148  0.181- 317 2.70 308 2.70 318 2.70 146 2.70 155 2.70 154 2.70 237 2.74 226 2.74
                           235 2.74 236 2.74 228 2.74 218 2.74
 228  0.852  0.148  0.181- 309 2.69 319 2.70 318 2.70 146 2.70 156 2.70 147 2.70 237 2.74 219 2.74
                           238 2.74 229 2.74 218 2.74 227 2.74
 229  0.741  0.148  0.181- 310 2.70 320 2.70 319 2.70 157 2.70 147 2.70 148 2.70 238 2.74 220 2.74
                           228 2.74 230 2.74 239 2.74 219 2.74
 230  0.630  0.148  0.181- 311 2.69 321 2.69 158 2.70 148 2.70 320 2.70 149 2.70 239 2.73 229 2.74
                           240 2.74 231 2.74 220 2.74 221 2.74
 231  0.518  0.148  0.181- 312 2.69 159 2.69 149 2.70 322 2.70 150 2.70 321 2.70 240 2.74 241 2.74
                           230 2.74 232 2.74 221 2.74 222 2.75
 232  0.407  0.148  0.181- 313 2.68 160 2.69 150 2.70 151 2.70 322 2.70 323 2.70 242 2.74 241 2.74
                           233 2.74 231 2.74 222 2.75 223 2.76
 233  0.296  0.148  0.181- 314 2.68 161 2.69 152 2.70 151 2.70 323 2.70 324 2.70 243 2.74 242 2.74
                           232 2.74 234 2.74 224 2.74 223 2.76
 234  0.185  0.148  0.181- 315 2.69 162 2.69 324 2.70 153 2.70 325 2.70 152 2.70 244 2.74 243 2.74
                           235 2.74 225 2.74 233 2.74 224 2.74
 235  0.074  0.148  0.181- 316 2.69 325 2.69 317 2.70 163 2.70 154 2.70 153 2.70 236 2.74 225 2.74
                           227 2.74 234 2.74 244 2.74 226 2.74
 236  0.963  0.037  0.182- 246 2.69 245 2.70 317 2.70 155 2.70 163 2.70  83 2.70 235 2.74 165 2.74
                           227 2.74 244 2.74 164 2.74 237 2.74
 237  0.852  0.037  0.181- 247 2.69 246 2.69 318 2.70 155 2.70 156 2.70  84 2.70 227 2.74 228 2.74
                           166 2.74 165 2.74 236 2.74 238 2.74
 238  0.741  0.037  0.181- 248 2.69 247 2.69 319 2.70 156 2.70 157 2.70  85 2.70 229 2.74 166 2.74
                           228 2.74 239 2.74 167 2.74 237 2.74
 239  0.630  0.037  0.182- 248 2.69 320 2.69 249 2.69 157 2.70 158 2.70  86 2.70 230 2.73 167 2.74
                           229 2.74 238 2.74 240 2.74 168 2.74
 240  0.519  0.037  0.182- 321 2.69 250 2.69 249 2.70  87 2.70 158 2.70 159 2.70 168 2.74 231 2.74
                           230 2.74 169 2.74 239 2.74 241 2.74
 241  0.407  0.037  0.182- 322 2.69 251 2.70  88 2.70 250 2.70 159 2.70 160 2.70 169 2.74 170 2.74
                           231 2.74 232 2.74 240 2.74 242 2.74
 242  0.296  0.037  0.181- 323 2.69 251 2.70  89 2.70 252 2.70 161 2.70 160 2.70 171 2.74 170 2.74
                           233 2.74 232 2.74 243 2.74 241 2.74
 243  0.185  0.037  0.182- 324 2.69 252 2.70 253 2.70  90 2.70 162 2.70 161 2.70 172 2.74 233 2.74
                           234 2.74 171 2.74 244 2.74 242 2.74
 244  0.074  0.037  0.182- 325 2.69 245 2.69 253 2.70  91 2.70 163 2.70 162 2.70 164 2.73 234 2.74
                           236 2.74 235 2.74 172 2.74 243 2.74
 245  0.000  0.000  0.271- 244 2.69 236 2.70 164 2.70 255 2.73 325 2.73 317 2.74 253 2.74 254 2.74
                           246 2.74
 246  0.889  0.000  0.271- 237 2.69 236 2.69 165 2.70 256 2.73 318 2.73 247 2.74 317 2.74 255 2.74
                           245 2.74
 247  0.778  0.000  0.271- 237 2.69 238 2.69 166 2.70 256 2.73 318 2.73 257 2.73 319 2.73 246 2.74
                           248 2.74
 248  0.667  0.000  0.271- 239 2.69 238 2.69 167 2.70 257 2.73 319 2.73 320 2.73 247 2.74 258 2.74
                           249 2.74
 249  0.556  0.000  0.271- 239 2.69 240 2.70 168 2.70 321 2.73 258 2.74 250 2.74 320 2.74 248 2.74
                           259 2.74
 250  0.445  1.000  0.271- 240 2.69 169 2.70 241 2.70 259 2.73 249 2.74 322 2.74 260 2.74 321 2.74
                           251 2.74
 251  0.333  0.000  0.271- 241 2.70 242 2.70 170 2.70 323 2.73 322 2.74 260 2.74 261 2.74 252 2.74
                           250 2.74
 252  0.222  1.000  0.271- 243 2.70 171 2.70 242 2.70 323 2.73 262 2.74 324 2.74 253 2.74 261 2.74
                           251 2.74
 253  0.111  0.000  0.271- 244 2.70 172 2.70 243 2.70 324 2.74 254 2.74 245 2.74 262 2.74 252 2.74
                           325 2.74
 254  0.000  0.889  0.271- 172 2.69 164 2.70 173 2.70 264 2.73 255 2.74 253 2.74 245 2.74 262 2.74
                           263 2.74
 255  0.889  0.889  0.271- 164 2.69 165 2.69 174 2.70 265 2.72 245 2.73 254 2.74 246 2.74 256 2.74
                           264 2.74
 256  0.778  0.890  0.271- 165 2.69 166 2.69 175 2.70 266 2.72 246 2.73 247 2.73 265 2.74 255 2.74
                           257 2.74
 257  0.667  0.890  0.271- 167 2.69 166 2.69 176 2.70 266 2.71 248 2.73 247 2.73 267 2.73 258 2.74
                           256 2.74
 258  0.556  0.889  0.271- 168 2.69 167 2.70 177 2.70 267 2.72 249 2.74 257 2.74 259 2.74 248 2.74
                           268 2.74
 259  0.445  0.889  0.271- 168 2.70 169 2.70 178 2.70 268 2.73 250 2.73 258 2.74 249 2.74 260 2.74
                           269 2.74
 260  0.333  0.889  0.271- 169 2.70 179 2.70 170 2.70 261 2.74 251 2.74 270 2.74 250 2.74 259 2.74
                           269 2.74
 261  0.222  0.889  0.271- 171 2.70 170 2.70 180 2.70 260 2.74 271 2.74 262 2.74 251 2.74 270 2.74
                           252 2.74
 262  0.111  0.889  0.271- 172 2.70 171 2.70 181 2.70 252 2.74 263 2.74 261 2.74 253 2.74 271 2.74
                           254 2.74
 263  0.000  0.778  0.271- 181 2.69 173 2.70 182 2.70 273 2.73 264 2.73 271 2.74 262 2.74 254 2.74
                           272 2.74
 264  0.890  0.778  0.271- 173 2.69 174 2.70 183 2.71 274 2.71 254 2.73 263 2.73 265 2.74 255 2.74
                           273 2.75
 265  0.779  0.779  0.271- 174 2.68 175 2.69 184 2.70 255 2.72 275 2.73 256 2.74 264 2.74 274 2.76
                           266 2.76
 266  0.668  0.780  0.271- 176 2.68 175 2.68 185 2.70 257 2.71 256 2.72 267 2.75 265 2.76 276 2.77
                           275 2.78
 267  0.556  0.779  0.271- 177 2.68 176 2.69 186 2.70 258 2.72 276 2.72 257 2.73 268 2.74 266 2.75
                           277 2.76
 268  0.444  0.778  0.271- 178 2.69 177 2.70 187 2.70 277 2.73 259 2.73 269 2.73 267 2.74 258 2.74
                           278 2.75
 269  0.333  0.778  0.271- 188 2.70 178 2.70 179 2.70 268 2.73 278 2.73 270 2.74 260 2.74 259 2.74
                           279 2.74
 270  0.222  0.778  0.271- 179 2.70 189 2.70 180 2.70 260 2.74 269 2.74 279 2.74 261 2.74 271 2.74
                           280 2.74
 271  0.111  0.778  0.271- 181 2.70 190 2.70 180 2.70 272 2.74 263 2.74 261 2.74 262 2.74 270 2.74
                           280 2.74
 272  0.000  0.667  0.271- 190 2.69 191 2.70 182 2.70 273 2.73 280 2.73 271 2.74 282 2.74 281 2.74
                           263 2.74
 273  0.890  0.667  0.271- 182 2.69 192 2.70 183 2.70 274 2.71 283 2.72 263 2.73 272 2.73 264 2.75
                           282 2.75
 274  0.780  0.668  0.270- 183 2.67 184 2.69 193 2.69 273 2.71 264 2.71 275 2.74 283 2.74 265 2.76
                           284 2.76
 275  0.669  0.668  0.274- 459 2.33 184 2.70 265 2.73 194 2.74 274 2.74 185 2.74 284 2.75 266 2.78
                           285 2.78 276 2.82
 276  0.555  0.668  0.274- 460 2.39 186 2.70 267 2.72 277 2.73 185 2.74 195 2.75 286 2.77 266 2.77
                           285 2.79 275 2.82
 277  0.444  0.667  0.271- 187 2.68 186 2.70 196 2.70 286 2.72 278 2.72 276 2.73 268 2.73 287 2.75
                           267 2.76
 278  0.333  0.667  0.271- 188 2.69 197 2.70 187 2.70 277 2.72 287 2.73 269 2.73 279 2.74 288 2.74
                           268 2.75
 279  0.222  0.667  0.271- 198 2.70 189 2.70 188 2.70 280 2.74 278 2.74 289 2.74 288 2.74 270 2.74
                           269 2.74
 280  0.111  0.667  0.271- 199 2.70 190 2.70 189 2.70 272 2.73 279 2.74 289 2.74 281 2.74 270 2.74
                           271 2.74
 281  0.000  0.555  0.271- 199 2.69 200 2.70 191 2.70 282 2.73 289 2.74 291 2.74 280 2.74 290 2.74
                           272 2.74
 282  0.889  0.555  0.271- 191 2.69 201 2.69 192 2.70 283 2.72 281 2.73 292 2.74 272 2.74 291 2.74
                           273 2.75
 283  0.780  0.556  0.271- 192 2.68 202 2.70 193 2.70 282 2.72 273 2.72 274 2.74 284 2.75 292 2.76
                           293 2.76
 284  0.668  0.556  0.274- 469 2.26 193 2.73 203 2.73 194 2.74 283 2.75 293 2.75 294 2.75 275 2.75
                           285 2.76 274 2.76
 285  0.556  0.556  0.272- 470 2.18 370 2.66 381 2.67 194 2.68 204 2.69 195 2.70 294 2.76 284 2.76
                           275 2.78 295 2.78 276 2.79 286 2.81
 286  0.442  0.556  0.271- 471 2.64 196 2.66 205 2.70 287 2.71 195 2.72 277 2.72 296 2.76 276 2.77
                           295 2.77 285 2.81
 287  0.332  0.555  0.271- 197 2.68 206 2.69 196 2.70 286 2.71 288 2.72 278 2.73 297 2.74 296 2.75
                           277 2.75
 288  0.222  0.555  0.271- 198 2.69 207 2.69 197 2.70 287 2.72 289 2.73 297 2.74 298 2.74 279 2.74
                           278 2.74
 289  0.111  0.555  0.271- 208 2.69 199 2.70 198 2.70 288 2.73 281 2.74 279 2.74 298 2.74 280 2.74
                           290 2.74
 290  1.000  0.444  0.271- 209 2.69 208 2.69 200 2.70 291 2.73 298 2.73 299 2.74 300 2.74 289 2.74
                           281 2.74
 291  0.889  0.444  0.271- 200 2.69 210 2.69 201 2.70 292 2.72 290 2.73 300 2.74 281 2.74 282 2.74
                           301 2.74
 292  0.779  0.444  0.271- 201 2.68 211 2.69 202 2.70 291 2.72 301 2.73 282 2.74 293 2.74 302 2.75
                           283 2.76
 293  0.668  0.444  0.274- 479 2.36 202 2.73 294 2.74 292 2.74 212 2.74 203 2.74 284 2.75 302 2.75
                           283 2.76 303 2.78
 294  0.557  0.444  0.272- 480 2.17 203 2.67 391 2.68 213 2.70 204 2.72 293 2.74 284 2.75 285 2.76
                           303 2.77 304 2.79 295 2.81
 295  0.442  0.444  0.273- 481 2.28 214 2.70 205 2.70 296 2.74 381 2.74 204 2.75 305 2.75 286 2.77
                           285 2.78 304 2.79 294 2.81
 296  0.331  0.444  0.271- 206 2.68 215 2.69 205 2.71 297 2.71 306 2.72 295 2.74 287 2.75 305 2.75
                           286 2.76
 297  0.221  0.444  0.271- 207 2.69 216 2.69 206 2.70 296 2.71 298 2.73 307 2.74 287 2.74 288 2.74
                           306 2.74
 298  0.111  0.444  0.271- 208 2.69 217 2.69 207 2.70 297 2.73 290 2.73 299 2.74 288 2.74 307 2.74
                           289 2.74
 299  1.000  0.333  0.271- 209 2.70 218 2.70 217 2.70 307 2.73 300 2.73 290 2.74 298 2.74 309 2.74
                           308 2.74
 300  0.889  0.333  0.271- 219 2.69 209 2.69 210 2.70 301 2.73 299 2.73 310 2.74 309 2.74 291 2.74
                           290 2.74
 301  0.778  0.333  0.271- 210 2.69 220 2.69 211 2.70 302 2.73 300 2.73 310 2.73 292 2.73 291 2.74
                           311 2.74
 302  0.667  0.332  0.271- 221 2.68 211 2.69 212 2.70 311 2.72 301 2.73 303 2.74 312 2.75 292 2.75
                           293 2.75
 303  0.556  0.331  0.270- 222 2.66 212 2.68 213 2.70 312 2.71 313 2.73 302 2.74 304 2.76 294 2.77
                           293 2.78
 304  0.443  0.331  0.273- 491 2.48 223 2.69 313 2.72 314 2.73 214 2.74 213 2.75 303 2.76 305 2.78
                           295 2.79 294 2.79
 305  0.331  0.332  0.271- 224 2.68 215 2.68 214 2.71 315 2.71 306 2.72 314 2.75 295 2.75 296 2.75
                           304 2.78
 306  0.221  0.333  0.271- 225 2.69 216 2.69 215 2.71 305 2.72 296 2.72 307 2.73 316 2.73 297 2.74
                           315 2.74
 307  0.111  0.333  0.271- 226 2.69 217 2.69 216 2.70 306 2.73 308 2.73 299 2.73 297 2.74 316 2.74
                           298 2.74
 308  1.000  0.222  0.271- 218 2.69 227 2.70 226 2.70 307 2.73 316 2.73 309 2.74 318 2.74 299 2.74
                           317 2.74
 309  0.889  0.222  0.271- 228 2.69 218 2.70 219 2.70 310 2.73 308 2.74 300 2.74 318 2.74 299 2.74
                           319 2.74
 310  0.778  0.222  0.271- 219 2.69 229 2.70 220 2.70 301 2.73 309 2.73 319 2.74 300 2.74 311 2.74
                           320 2.74
 311  0.667  0.222  0.271- 230 2.69 220 2.69 221 2.70 302 2.72 320 2.73 310 2.74 312 2.74 321 2.74
                           301 2.74
 312  0.556  0.221  0.271- 231 2.69 221 2.69 222 2.71 303 2.71 321 2.72 322 2.74 311 2.74 313 2.74
                           302 2.75
 313  0.444  0.221  0.271- 232 2.68 223 2.70 222 2.70 322 2.72 304 2.72 323 2.73 303 2.73 312 2.74
                           314 2.77
 314  0.332  0.221  0.271- 233 2.68 224 2.69 223 2.70 324 2.71 304 2.73 315 2.73 323 2.73 305 2.75
                           313 2.77
 315  0.222  0.222  0.271- 234 2.69 225 2.69 224 2.70 305 2.71 325 2.73 314 2.73 316 2.74 324 2.74
                           306 2.74
 316  0.111  0.222  0.271- 235 2.69 226 2.69 225 2.70 306 2.73 317 2.73 308 2.73 315 2.74 307 2.74
                           325 2.74
 317  1.000  0.111  0.271- 235 2.70 236 2.70 227 2.70 316 2.73 325 2.73 246 2.74 245 2.74 318 2.74
                           308 2.74
 318  0.889  0.111  0.271- 227 2.70 228 2.70 237 2.70 247 2.73 246 2.73 308 2.74 309 2.74 317 2.74
                           319 2.74
 319  0.778  0.111  0.271- 228 2.70 238 2.70 229 2.70 247 2.73 248 2.73 310 2.74 320 2.74 309 2.74
                           318 2.74
 320  0.667  0.111  0.271- 239 2.69 229 2.70 230 2.70 311 2.73 248 2.73 321 2.74 319 2.74 249 2.74
                           310 2.74
 321  0.556  0.111  0.271- 240 2.69 230 2.69 231 2.70 312 2.72 249 2.73 320 2.74 311 2.74 250 2.74
                           322 2.75
 322  0.444  0.111  0.271- 241 2.69 231 2.70 232 2.70 313 2.72 251 2.74 312 2.74 250 2.74 323 2.74
                           321 2.75
 323  0.333  0.111  0.271- 242 2.69 233 2.70 232 2.70 313 2.73 252 2.73 314 2.73 251 2.73 324 2.74
                           322 2.74
 324  0.222  0.111  0.271- 243 2.69 234 2.70 233 2.70 314 2.71 253 2.74 315 2.74 252 2.74 323 2.74
                           325 2.74
 325  0.111  0.111  0.271- 244 2.69 235 2.69 234 2.70 315 2.73 245 2.73 317 2.73 316 2.74 253 2.74
                           324 2.74
 326  0.991  0.018  0.414- 516 1.42 426 1.42 525 1.42
 327  0.891  0.018  0.411- 517 1.42 516 1.42 427 1.42
 328  0.791  0.018  0.411- 518 1.42 428 1.42 517 1.42
 329  0.691  0.018  0.414- 429 1.42 519 1.42 518 1.42
 330  0.591  0.018  0.417- 519 1.42 520 1.42 430 1.42
 331  0.491  0.018  0.420- 520 1.42 431 1.42 521 1.43
 332  0.391  0.018  0.421- 521 1.42 522 1.42 432 1.43
 333  0.291  0.018  0.421- 523 1.42 433 1.43 522 1.43
 334  0.191  0.018  0.420- 524 1.42 523 1.43 434 1.43
 335  0.091  0.018  0.417- 525 1.42 435 1.43 524 1.43
 336  0.991  0.918  0.416- 426 1.42 435 1.42 436 1.43
 337  0.891  0.918  0.411- 427 1.42 437 1.42 426 1.43
 338  0.791  0.918  0.408- 428 1.42 427 1.42 438 1.42
 339  0.691  0.918  0.410- 429 1.42 428 1.42 439 1.42
 340  0.591  0.918  0.415- 429 1.42 440 1.42 430 1.42
 341  0.491  0.918  0.419- 430 1.42 441 1.42 431 1.43
 342  0.391  0.918  0.422- 431 1.42 442 1.42 432 1.42
 343  0.291  0.918  0.423- 433 1.42 432 1.43 443 1.43
 344  0.191  0.918  0.423- 434 1.42 444 1.43 433 1.43
 345  0.091  0.918  0.420- 435 1.42 434 1.43 445 1.43
 346  0.991  0.818  0.416- 436 1.42 445 1.43 446 1.43
 347  0.891  0.818  0.409- 447 1.43 437 1.43 436 1.43
 348  0.791  0.818  0.402- 438 1.42 437 1.43 448 1.43
 349  0.692  0.819  0.400- 439 1.42 438 1.42 449 1.43
 350  0.591  0.818  0.406- 439 1.42 440 1.43 450 1.43
 351  0.491  0.818  0.414- 440 1.42 441 1.42 451 1.43
 352  0.391  0.818  0.420- 452 1.42 441 1.42 442 1.43
 353  0.291  0.818  0.423- 453 1.42 442 1.42 443 1.43
 354  0.191  0.818  0.423- 454 1.42 444 1.43 443 1.43
 355  0.091  0.818  0.421- 445 1.42 444 1.43 455 1.43
 356  0.991  0.717  0.416- 455 1.43 456 1.43 446 1.43
[...]


Lmod is automatically replacing "PrgEnv-cray/8.3.3" with "PrgEnv-gnu/8.3.3".


Due to MODULEPATH changes, the following have been reloaded:
  1) cray-mpich/8.1.23


Lmod is automatically replacing "craype-network-ofi" with "craype-network-ucx".


Inactive Modules:
  1) cray-mpich

	linux-vdso.so.1 (0x00007ffd9a9ab000)
	libmkl_scalapack_lp64.so => /work/y07/shared/libs/core/mkl/19.5-281/mkl/lib/intel64/libmkl_scalapack_lp64.so (0x000014b931431000)
	libmkl_gf_lp64.so => /work/y07/shared/libs/core/mkl/19.5-281/mkl/lib/intel64/libmkl_gf_lp64.so (0x000014b9308c1000)
	libmkl_gnu_thread.so => /work/y07/shared/libs/core/mkl/19.5-281/mkl/lib/intel64/libmkl_gnu_thread.so (0x000014b92efe8000)
	libmkl_core.so => /work/y07/shared/libs/core/mkl/19.5-281/mkl/lib/intel64/libmkl_core.so (0x000014b92acb7000)
	libmkl_blacs_intelmpi_lp64.so => /work/y07/shared/libs/core/mkl/19.5-281/mkl/lib/intel64/libmkl_blacs_intelmpi_lp64.so (0x000014b92aa75000)
	libgomp.so.1 => /opt/cray/pe/gcc-libs/libgomp.so.1 (0x000014b92a832000)
	libpthread.so.0 => /lib64/libpthread.so.0 (0x000014b92a60f000)
	libgfortran.so.5 => /opt/cray/pe/gcc-libs/libgfortran.so.5 (0x000014b92a163000)
	libm.so.6 => /lib64/libm.so.6 (0x000014b929e18000)
	libmvec.so.1 => /lib64/libmvec.so.1 (0x000014b929bed000)
	libdl.so.2 => /lib64/libdl.so.2 (0x000014b9299e9000)
	libstdc++.so.6 => /opt/cray/pe/gcc-libs/libstdc++.so.6 (0x000014b9295d7000)
	libhdf5_fortran_parallel_gnu_91.so.200 => /opt/cray/pe/hdf5-parallel/1.12.2.1/gnu/9.1/lib/libhdf5_fortran_parallel_gnu_91.so.200 (0x000014b929384000)
	libmpifort_gnu_91.so.12 => /opt/cray/pe/mpich/8.1.23/ucx/gnu/9.1/lib/libmpifort_gnu_91.so.12 (0x000014b929100000)
	libxpmem.so.0 => /opt/cray/xpmem/default/lib64/libxpmem.so.0 (0x000014b931f44000)
	libquadmath.so.0 => /opt/cray/pe/gcc-libs/libquadmath.so.0 (0x000014b928eb9000)
	libgcc_s.so.1 => /opt/cray/pe/gcc-libs/libgcc_s.so.1 (0x000014b928ca0000)
	libc.so.6 => /lib64/libc.so.6 (0x000014b9288ab000)
	/lib64/ld-linux-x86-64.so.2 (0x000014b931d39000)
	libhdf5_parallel_gnu_91.so.200 => /opt/cray/pe/hdf5-parallel/1.12.2.1/gnu/9.1/lib/libhdf5_parallel_gnu_91.so.200 (0x000014b92822e000)
	libmpi_gnu_91.so.12 => /opt/cray/pe/mpich/8.1.23/ucx/gnu/9.1/lib/libmpi_gnu_91.so.12 (0x000014b927744000)
	libucs.so.0 => /opt/cray/pe/cray-ucx/2.7.0-1/ucx/lib/libucs.so.0 (0x000014b9274fb000)
	librt.so.1 => /lib64/librt.so.1 (0x000014b9272f2000)
	libucp.so.0 => /opt/cray/pe/cray-ucx/2.7.0-1/ucx/lib/libucp.so.0 (0x000014b92708e000)
	libpmi.so.0 => /opt/cray/pe/lib64/libpmi.so.0 (0x000014b926e8c000)
	libpmi2.so.0 => /opt/cray/pe/lib64/libpmi2.so.0 (0x000014b926c53000)
	libz.so.1 => /lib64/libz.so.1 (0x000014b926a3c000)
	libnuma.so.1 => /usr/lib64/libnuma.so.1 (0x000014b926830000)
	libucm.so.0 => /opt/cray/pe/cray-ucx/2.7.0-1/ucx/lib/libucm.so.0 (0x000014b926616000)
	libuct.so.0 => /opt/cray/pe/cray-ucx/2.7.0-1/ucx/lib/libuct.so.0 (0x000014b9263e4000)
	libpals.so.0 => /opt/cray/pe/lib64/libpals.so.0 (0x000014b9261df000)
rm: cannot remove 'WAVECAR': No such file or directory
 running   64 mpi-ranks, with    2 threads/rank, on    1 nodes
 distrk:  each k-point on   64 cores,    1 groups
 distr:  one band on    1 cores,   64 groups
 vasp.6.4.2 20Jul23 (build Jan 29 2024 09:14:07) gamma-only                      
 POSCAR found :  5 types and     543 ions
 Reading from existing POTCAR
 scaLAPACK will be used
 -----------------------------------------------------------------------------
|                                                                             |
|               ----> ADVICE to this user running VASP <----                  |
|                                                                             |
|     You have switched on vdW-DFT.                                           |
|     This routine was written and supplied by Jiri Klimes. We recommend      |
|     that you carefully read and cite the following publications:            |
|       J. Klimes, D.R. Bowler, A. Michelides                                 |
|          J. Phys.: Cond Matt. 22 022201 (2010)                              |
|       J. Klimes, D.R. Bowler, A. Michelides                                 |
|          Phys. Rev. B. 83, 195131 (2011)                                    |
|     and references therein.                                                 |
|                                                                             |
 -----------------------------------------------------------------------------

 Reading from existing POTCAR
 -----------------------------------------------------------------------------
|                                                                             |
|               ----> ADVICE to this user running VASP <----                  |
|                                                                             |
|     You enforced a specific xc type in the INCAR file but a different       |
|     type was found in the POTCAR file.                                      |
|     I HOPE YOU KNOW WHAT YOU ARE DOING!                                     |
|                                                                             |
 -----------------------------------------------------------------------------

 LDA part: xc-table for Pade appr. of Perdew
 POSCAR, INCAR and KPOINTS ok, starting setup
 FFT: planning ... GRIDC
 FFT: planning ... GRID_SOFT
 FFT: planning ... GRID
 WAVECAR not read
 entering main loop
       N       E                     dE             d eps       ncg     rms          rms(c)
Total vdW correction in eV:    557.4588517
DAV:   1     0.448998794533E+05    0.44900E+05   -0.16375E+06  4736   0.129E+03
DAV:   2     0.114532855279E+04   -0.43755E+05   -0.41669E+05  4800   0.454E+02
DAV:   3    -0.386210003035E+04   -0.50074E+04   -0.46607E+04  7872   0.146E+02
DAV:   4    -0.430557796327E+04   -0.44348E+03   -0.41303E+03  6848   0.385E+01
DAV:   5    -0.432249883005E+04   -0.16921E+02   -0.16143E+02  6976   0.744E+00    0.242E+02
Total vdW correction in eV:    536.7632858
RMM:   6    -0.567290701228E+04   -0.13504E+04   -0.12797E+03  5596   0.273E+01    0.370E+02
Total vdW correction in eV:    536.1215083
RMM:   7    -0.403904753927E+04    0.16339E+04   -0.34592E+02  5092   0.146E+01    0.138E+02
Total vdW correction in eV:    531.2024508
RMM:   8    -0.550940788894E+04   -0.14704E+04   -0.19833E+03  7792   0.230E+01    0.311E+02
Total vdW correction in eV:    530.1079941
RMM:   9    -0.477483812705E+04    0.73457E+03   -0.68704E+02  6311   0.155E+01    0.248E+02
Total vdW correction in eV:    530.0809379
RMM:  10    -0.416087926734E+04    0.61396E+03   -0.35797E+02  5824   0.120E+01    0.162E+02
Total vdW correction in eV:    530.1135843
RMM:  11    -0.412294203361E+04    0.37937E+02   -0.31035E+02  6097   0.108E+01    0.134E+02
Total vdW correction in eV:    530.0566334
RMM:  12    -0.394594306629E+04    0.17700E+03   -0.11462E+02  5527   0.760E+00    0.725E+01
Total vdW correction in eV:    530.1482645
RMM:  13    -0.390608437587E+04    0.39859E+02   -0.36999E+01  5281   0.521E+00    0.432E+01
Total vdW correction in eV:    530.1706029
RMM:  14    -0.391519215955E+04   -0.91078E+01   -0.32475E+01  6430   0.279E+00    0.540E+01
Total vdW correction in eV:    530.1974951
RMM:  15    -0.388735555389E+04    0.27837E+02   -0.10425E+01  5586   0.189E+00    0.339E+01
Total vdW correction in eV:    530.1047662
RMM:  16    -0.388428459561E+04    0.30710E+01   -0.46459E+00  5677   0.145E+00    0.261E+01
Total vdW correction in eV:    529.9522481
RMM:  17    -0.388221013511E+04    0.20745E+01   -0.29677E+00  5756   0.107E+00    0.205E+01
Total vdW correction in eV:    529.7974705
RMM:  18    -0.388236453717E+04   -0.15440E+00   -0.23860E+00  5915   0.901E-01    0.211E+01
Total vdW correction in eV:    529.7006467
RMM:  19    -0.388038655797E+04    0.19780E+01   -0.16573E+00  5833   0.770E-01    0.154E+01
Total vdW correction in eV:    529.6241850
RMM:  20    -0.387989234130E+04    0.49422E+00   -0.16959E+00  6123   0.802E-01    0.123E+01
Total vdW correction in eV:    529.5535508
RMM:  21    -0.388001906330E+04   -0.12672E+00   -0.18448E+00  6337   0.816E-01    0.128E+01
Total vdW correction in eV:    529.5882614
RMM:  22    -0.388011068354E+04   -0.91620E-01   -0.10807E+00  6029   0.636E-01    0.122E+01
Total vdW correction in eV:    529.6476552
RMM:  23    -0.387918044500E+04    0.93024E+00   -0.51887E-01  5612   0.455E-01    0.749E+00
Total vdW correction in eV:    529.7287993
RMM:  24    -0.387873277440E+04    0.44767E+00   -0.24300E-01  5489   0.348E-01    0.578E+00
Total vdW correction in eV:    529.7958526
RMM:  25    -0.387860073470E+04    0.13204E+00   -0.15503E-01  5392   0.311E-01    0.353E+00
Total vdW correction in eV:    529.8633764
RMM:  26    -0.387856512181E+04    0.35613E-01   -0.14306E-01  5754   0.231E-01    0.361E+00
Total vdW correction in eV:    529.8924639
RMM:  27    -0.387847338715E+04    0.91735E-01   -0.62765E-02  5904   0.149E-01    0.256E+00
Total vdW correction in eV:    529.9238598
RMM:  28    -0.387842960439E+04    0.43783E-01   -0.32921E-02  5640   0.117E-01    0.190E+00
Total vdW correction in eV:    529.9404139
RMM:  29    -0.387841083229E+04    0.18772E-01   -0.15817E-02  5723   0.825E-02    0.160E+00
Total vdW correction in eV:    529.9503895
RMM:  30    -0.387839699852E+04    0.13834E-01   -0.94454E-03  5637   0.628E-02    0.140E+00
Total vdW correction in eV:    529.9577722
RMM:  31    -0.387839860492E+04   -0.16064E-02   -0.11098E-02  6133   0.596E-02    0.150E+00
Total vdW correction in eV:    529.9655346
RMM:  32    -0.387838558407E+04    0.13021E-01   -0.84490E-03  6070   0.533E-02    0.113E+00
Total vdW correction in eV:    529.9861816
RMM:  33    -0.387836859610E+04    0.16988E-01   -0.85634E-03  6177   0.572E-02    0.727E-01
Total vdW correction in eV:    530.0036660
RMM:  34    -0.387836084507E+04    0.77510E-02   -0.49371E-03  5774   0.433E-02    0.483E-01
Total vdW correction in eV:    530.0188762
RMM:  35    -0.387835782363E+04    0.30214E-02   -0.40852E-03  6033   0.356E-02    0.376E-01
Total vdW correction in eV:    530.0308710
RMM:  36    -0.387835709248E+04    0.73115E-03   -0.24472E-03  5899   0.284E-02    0.235E-01
Total vdW correction in eV:    530.0374831
RMM:  37    -0.387835765295E+04   -0.56047E-03   -0.11249E-03  5331   0.211E-02    0.152E-01
Total vdW correction in eV:    530.0431609
RMM:  38    -0.387835938070E+04   -0.17278E-02   -0.73539E-04  4870   0.175E-02    0.144E-01
Total vdW correction in eV:    530.0518068
RMM:  39    -0.387836415796E+04   -0.47773E-02   -0.11183E-03  4987   0.201E-02    0.130E-01
Total vdW correction in eV:    530.0543344
RMM:  40    -0.387836697782E+04   -0.28199E-02   -0.44540E-04  4078   0.131E-02    0.115E-01
Total vdW correction in eV:    530.0549780
RMM:  41    -0.387836994245E+04   -0.29646E-02   -0.34357E-04  3610   0.114E-02    0.110E-01
Total vdW correction in eV:    530.0550904
RMM:  42    -0.387837258726E+04   -0.26448E-02   -0.23371E-04  3258   0.949E-03    0.110E-01
Total vdW correction in eV:    530.0540207
RMM:  43    -0.387837642610E+04   -0.38388E-02   -0.35768E-04  3659   0.103E-02    0.927E-02
Total vdW correction in eV:    530.0507394
RMM:  44    -0.387837983886E+04   -0.34128E-02   -0.32220E-04  3479   0.985E-03    0.674E-02
Total vdW correction in eV:    530.0469329
RMM:  45    -0.387838197575E+04   -0.21369E-02   -0.20575E-04  3197   0.778E-03    0.454E-02
Total vdW correction in eV:    530.0448245
RMM:  46    -0.387838274290E+04   -0.76715E-03   -0.76824E-05  2688   0.580E-03    0.379E-02
Total vdW correction in eV:    530.0432220
RMM:  47    -0.387838322892E+04   -0.48603E-03   -0.43993E-05  2495   0.439E-03    0.304E-02
Total vdW correction in eV:    530.0414098
RMM:  48    -0.387838370882E+04   -0.47990E-03   -0.34973E-05  2531   0.383E-03    0.178E-02
Total vdW correction in eV:    530.0401151
RMM:  49    -0.387838402497E+04   -0.31615E-03   -0.22843E-05  2116   0.312E-03    0.139E-02
Total vdW correction in eV:    530.0389171
RMM:  50    -0.387838427986E+04   -0.25489E-03   -0.17878E-05  2030   0.271E-03    0.941E-03
Total vdW correction in eV:    530.0382594
RMM:  51    -0.387838443077E+04   -0.15091E-03   -0.11732E-05  1752   0.238E-03    0.925E-03
Total vdW correction in eV:    530.0377467
RMM:  52    -0.387838455402E+04   -0.12324E-03   -0.85694E-06  1622   0.212E-03    0.581E-03
Total vdW correction in eV:    530.0375308
RMM:  53    -0.387838462608E+04   -0.72066E-04   -0.48289E-06  1314   0.190E-03
Total vdW correction in eV:    530.0362688
Total vdW correction in eV:    530.0371581
   1 F= -.38783846E+04 E0= -.38785242E+04  d E =0.418763E+00
Note: The following floating-point exceptions are signalling: IEEE_INVALID_FLAG IEEE_UNDERFLOW_FLAG IEEE_DENORMAL
Note: The following floating-point exceptions are signalling: IEEE_INVALID_FLAG IEEE_UNDERFLOW_FLAG IEEE_DENORMAL
Note: The following floating-point exceptions are signalling: IEEE_INVALID_FLAG IEEE_UNDERFLOW_FLAG IEEE_DENORMAL
Note: The following floating-point exceptions are signalling: IEEE_INVALID_FLAG IEEE_UNDERFLOW_FLAG IEEE_DENORMAL
Note: The following floating-point exceptions are signalling: IEEE_INVALID_FLAG IEEE_UNDERFLOW_FLAG IEEE_DENORMAL
Note: The following floating-point exceptions are signalling: IEEE_INVALID_FLAG IEEE_UNDERFLOW_FLAG IEEE_DENORMAL
Note: The following floating-point exceptions are signalling: IEEE_INVALID_FLAG IEEE_UNDERFLOW_FLAG IEEE_DENORMAL
Note: The following floating-point exceptions are signalling: IEEE_INVALID_FLAG IEEE_UNDERFLOW_FLAG IEEE_DENORMAL
Note: The following floating-point exceptions are signalling: IEEE_INVALID_FLAG IEEE_UNDERFLOW_FLAG IEEE_DENORMAL
Note: The following floating-point exceptions are signalling: IEEE_INVALID_FLAG IEEE_UNDERFLOW_FLAG IEEE_DENORMAL
Note: The following floating-point exceptions are signalling: IEEE_INVALID_FLAG IEEE_UNDERFLOW_FLAG IEEE_DENORMAL
Note: The following floating-point exceptions are signalling: IEEE_INVALID_FLAG IEEE_UNDERFLOW_FLAG IEEE_DENORMAL
Note: The following floating-point exceptions are signalling: IEEE_INVALID_FLAG IEEE_UNDERFLOW_FLAG IEEE_DENORMAL
Note: The following floating-point exceptions are signalling: IEEE_INVALID_FLAG IEEE_UNDERFLOW_FLAG IEEE_DENORMAL
Note: The following floating-point exceptions are signalling: IEEE_INVALID_FLAG IEEE_UNDERFLOW_FLAG IEEE_DENORMAL
Note: The following floating-point exceptions are signalling: IEEE_INVALID_FLAG IEEE_UNDERFLOW_FLAG IEEE_DENORMAL
Note: The following floating-point exceptions are signalling: IEEE_INVALID_FLAG IEEE_UNDERFLOW_FLAG IEEE_DENORMAL
Note: The following floating-point exceptions are signalling: IEEE_INVALID_FLAG IEEE_UNDERFLOW_FLAG IEEE_DENORMAL
Note: The following floating-point exceptions are signalling: IEEE_INVALID_FLAG IEEE_UNDERFLOW_FLAG IEEE_DENORMAL
Note: The following floating-point exceptions are signalling: IEEE_INVALID_FLAG IEEE_UNDERFLOW_FLAG IEEE_DENORMAL
Note: The following floating-point exceptions are signalling: IEEE_INVALID_FLAG IEEE_UNDERFLOW_FLAG IEEE_DENORMAL
Note: The following floating-point exceptions are signalling: IEEE_INVALID_FLAG IEEE_UNDERFLOW_FLAG IEEE_DENORMAL
Note: The following floating-point exceptions are signalling: IEEE_INVALID_FLAG IEEE_UNDERFLOW_FLAG IEEE_DENORMAL
Note: The following floating-point exceptions are signalling: IEEE_INVALID_FLAG IEEE_UNDERFLOW_FLAG IEEE_DENORMAL
Note: The following floating-point exceptions are signalling: IEEE_INVALID_FLAG IEEE_UNDERFLOW_FLAG IEEE_DENORMAL
Note: The following floating-point exceptions are signalling: IEEE_INVALID_FLAG IEEE_UNDERFLOW_FLAG IEEE_DENORMAL
Note: The following floating-point exceptions are signalling: IEEE_INVALID_FLAG IEEE_UNDERFLOW_FLAG IEEE_DENORMAL
Note: The following floating-point exceptions are signalling: IEEE_INVALID_FLAG IEEE_UNDERFLOW_FLAG IEEE_DENORMAL
Note: The following floating-point exceptions are signalling: IEEE_INVALID_FLAG IEEE_UNDERFLOW_FLAG IEEE_DENORMAL
Note: The following floating-point exceptions are signalling: IEEE_INVALID_FLAG IEEE_UNDERFLOW_FLAG IEEE_DENORMAL
Note: The following floating-point exceptions are signalling: IEEE_INVALID_FLAG IEEE_UNDERFLOW_FLAG IEEE_DENORMAL
Note: The following floating-point exceptions are signalling: IEEE_INVALID_FLAG IEEE_UNDERFLOW_FLAG IEEE_DENORMAL
Note: The following floating-point exceptions are signalling: IEEE_INVALID_FLAG IEEE_UNDERFLOW_FLAG IEEE_DENORMAL
Note: The following floating-point exceptions are signalling: IEEE_INVALID_FLAG IEEE_UNDERFLOW_FLAG IEEE_DENORMAL
Note: The following floating-point exceptions are signalling: IEEE_INVALID_FLAG IEEE_UNDERFLOW_FLAG IEEE_DENORMAL
Note: The following floating-point exceptions are signalling: IEEE_INVALID_FLAG IEEE_UNDERFLOW_FLAG IEEE_DENORMAL
Note: The following floating-point exceptions are signalling: IEEE_INVALID_FLAG IEEE_UNDERFLOW_FLAG IEEE_DENORMAL
Note: The following floating-point exceptions are signalling: IEEE_INVALID_FLAG IEEE_UNDERFLOW_FLAG IEEE_DENORMAL
Note: The following floating-point exceptions are signalling: IEEE_INVALID_FLAG IEEE_UNDERFLOW_FLAG IEEE_DENORMAL
Note: The following floating-point exceptions are signalling: IEEE_INVALID_FLAG IEEE_UNDERFLOW_FLAG IEEE_DENORMAL
Note: The following floating-point exceptions are signalling: IEEE_INVALID_FLAG IEEE_UNDERFLOW_FLAG IEEE_DENORMAL
Note: The following floating-point exceptions are signalling: IEEE_INVALID_FLAG IEEE_UNDERFLOW_FLAG IEEE_DENORMAL
Note: The following floating-point exceptions are signalling: IEEE_INVALID_FLAG IEEE_UNDERFLOW_FLAG IEEE_DENORMAL
Note: The following floating-point exceptions are signalling: IEEE_INVALID_FLAG IEEE_UNDERFLOW_FLAG IEEE_DENORMAL
Note: The following floating-point exceptions are signalling: IEEE_INVALID_FLAG IEEE_UNDERFLOW_FLAG IEEE_DENORMAL
Note: The following floating-point exceptions are signalling: IEEE_INVALID_FLAG IEEE_UNDERFLOW_FLAG IEEE_DENORMAL
Note: The following floating-point exceptions are signalling: IEEE_INVALID_FLAG IEEE_UNDERFLOW_FLAG IEEE_DENORMAL
Note: The following floating-point exceptions are signalling: IEEE_INVALID_FLAG IEEE_UNDERFLOW_FLAG IEEE_DENORMAL
Note: The following floating-point exceptions are signalling: IEEE_INVALID_FLAG IEEE_UNDERFLOW_FLAG IEEE_DENORMAL
Note: The following floating-point exceptions are signalling: IEEE_INVALID_FLAG IEEE_UNDERFLOW_FLAG IEEE_DENORMAL
Note: The following floating-point exceptions are signalling: IEEE_INVALID_FLAG IEEE_UNDERFLOW_FLAG IEEE_DENORMAL
Note: The following floating-point exceptions are signalling: IEEE_INVALID_FLAG IEEE_UNDERFLOW_FLAG IEEE_DENORMAL
Note: The following floating-point exceptions are signalling: IEEE_INVALID_FLAG IEEE_UNDERFLOW_FLAG IEEE_DENORMAL
Note: The following floating-point exceptions are signalling: IEEE_INVALID_FLAG IEEE_UNDERFLOW_FLAG IEEE_DENORMAL
Note: The following floating-point exceptions are signalling: IEEE_INVALID_FLAG IEEE_UNDERFLOW_FLAG IEEE_DENORMAL
Note: The following floating-point exceptions are signalling: IEEE_INVALID_FLAG IEEE_UNDERFLOW_FLAG IEEE_DENORMAL
Note: The following floating-point exceptions are signalling: IEEE_INVALID_FLAG IEEE_UNDERFLOW_FLAG IEEE_DENORMAL
Note: The following floating-point exceptions are signalling: IEEE_INVALID_FLAG IEEE_UNDERFLOW_FLAG IEEE_DENORMAL
Note: The following floating-point exceptions are signalling: IEEE_INVALID_FLAG IEEE_UNDERFLOW_FLAG IEEE_DENORMAL
Note: The following floating-point exceptions are signalling: IEEE_INVALID_FLAG IEEE_UNDERFLOW_FLAG IEEE_DENORMAL
Note: The following floating-point exceptions are signalling: IEEE_INVALID_FLAG IEEE_UNDERFLOW_FLAG IEEE_DENORMAL
Note: The following floating-point exceptions are signalling: IEEE_INVALID_FLAG IEEE_UNDERFLOW_FLAG IEEE_DENORMAL
Note: The following floating-point exceptions are signalling: IEEE_INVALID_FLAG IEEE_UNDERFLOW_FLAG IEEE_DENORMAL
Note: The following floating-point exceptions are signalling: IEEE_INVALID_FLAG IEEE_UNDERFLOW_FLAG IEEE_DENORMAL
