 vasp.6.3.1 04May22 (build May 25 2022 14:07:00) complex                         
 executed on        HPECrayEX_GCC date 2022.05.26  10:53:54
 running  128 mpi-ranks, with    1 threads/rank
 distrk:  each k-point on   64 cores,    2 groups
 distr:  one band on NCORE=   4 cores,   16 groups


--------------------------------------------------------------------------------------------------------


 INCAR:
   AEXX = 0.25
   ENCUT = 450
   ICORELEVEL = 0
   NSW = 0
   LSORBIT = True
   EDIFF = 1e-06
   EDIFFG = -0.01
   ALGO = All
   ADDGRID = True
   HFSCREEN = 0.2
   IBRION = -1
   ICHARG = 1
   ISIF = 2
   ISYM = 0
   ISMEAR = 0
   LASPH = True
   LHFCALC = True
   LORBIT = 11
   LREAL = False
   LVHAR = True
   LWAVE = True
   NEDOS = 2000
   NELM = 6
   PREC = Accurate
   PRECFOCK = Fast
   SIGMA = 0.05
   NELECT = 588
   NCORE = 4
   KPAR = 2

 POTCAR:    PAW_PBE Cd 06Sep2000                  
 POTCAR:    PAW_PBE Te 08Apr2002                  
 -----------------------------------------------------------------------------
|                                                                             |
|           W    W    AA    RRRRR   N    N  II  N    N   GGGG   !!!           |
|           W    W   A  A   R    R  NN   N  II  NN   N  G    G  !!!           |
|           W    W  A    A  R    R  N N  N  II  N N  N  G       !!!           |
|           W WW W  AAAAAA  RRRRR   N  N N  II  N  N N  G  GGG   !            |
|           WW  WW  A    A  R   R   N   NN  II  N   NN  G    G                |
|           W    W  A    A  R    R  N    N  II  N    N   GGGG   !!!           |
|                                                                             |
|     You use a magnetic or noncollinear calculation, but did not specify     |
|     the initial magnetic moment with the MAGMOM tag. Note that a            |
|     default of 1 will be used for all atoms. This ferromagnetic setup       |
|     may break the symmetry of the crystal, in particular it may rule        |
|     out finding an antiferromagnetic solution. Thence, we recommend         |
|     setting the initial magnetic moment manually or verifying carefully     |
|     that this magnetic setup is desired.                                    |
|                                                                             |
 -----------------------------------------------------------------------------

 POTCAR:    PAW_PBE Cd 06Sep2000                  
   VRHFIN =Cd : s2 d10                                                                              
   LEXCH  = PE                                                                                      
   EATOM  =  1293.1815 eV,   95.0462 Ry                                                             
                                                                                                    
   TITEL  = PAW_PBE Cd 06Sep2000                                                                    
   LULTRA =        F    use ultrasoft PP ?                                                          
   IUNSCR =        1    unscreen: 0-lin 1-nonlin 2-no                                               
   RPACOR =    2.000    partial core radius                                                         
   POMASS =  112.411; ZVAL   =   12.000    mass and valenz                                          
   RCORE  =    2.300    outmost cutoff radius                                                       
   RWIGS  =    2.980; RWIGS  =    1.577    wigner-seitz radius (au A)                               
   ENMAX  =  274.336; ENMIN  =  205.752 eV                                                          
   RCLOC  =    2.054    cutoff for local pot                                                        
   LCOR   =        T    correct aug charges                                                         
   LPAW   =        T    paw PP                                                                      
   EAUG   =  456.106                                                                                
   DEXC   =    0.000                                                                                
   RMAX   =    2.358    core radius for proj-oper                                                   
   RAUG   =    1.300    factor for augmentation sphere                                              
   RDEP   =    2.450    radius for radial grids                                                     
   RDEPT  =    1.955    core radius for aug-charge                                                  
                                                                                                    
   Atomic configuration                                                                             
   12 entries                                                                                       
     n  l   j            E        occ.                                                              
     1  0  0.50    -26519.7817   2.0000                                                             
     2  0  0.50     -3936.9612   2.0000                                                             
     2  1  1.50     -3532.2230   6.0000                                                             
     3  0  0.50      -733.7908   2.0000                                                             
     3  1  1.50      -601.0792   6.0000                                                             
     3  2  2.50      -393.5307  10.0000                                                             
     4  0  0.50      -105.8977   2.0000                                                             
     4  1  1.50       -66.9488   6.0000                                                             
     4  2  2.50       -11.7331  10.0000                                                             
     5  0  0.50        -5.6592   2.0000                                                             
     5  1  0.50        -1.3606   0.0000                                                             
     4  3  2.50        -1.3606   0.0000                                                             
   Description                                                                                      
     l       E           TYP  RCUT    TYP  RCUT                                                     
     2    -11.7331479     23  2.300                                                                 
     2    -13.0937305     23  2.300                                                                 
     0     -5.6591502     23  2.300                                                                 
     0     -1.5561433     23  2.300                                                                 
     1     -2.7211652     23  2.300                                                                 
     1      8.3548275     23  2.300                                                                 
  local pseudopotential read in
  partial core-charges read in
  partial kinetic energy density read in
  atomic valenz-charges read in
  non local Contribution for L=           2  read in
    real space projection operators read in
  non local Contribution for L=           2  read in
    real space projection operators read in
  non local Contribution for L=           0  read in
    real space projection operators read in
  non local Contribution for L=           0  read in
    real space projection operators read in
  non local Contribution for L=           1  read in
    real space projection operators read in
  non local Contribution for L=           1  read in
    real space projection operators read in
    PAW grid and wavefunctions read in

   number of l-projection  operators is LMAX  =           6
   number of lm-projection operators is LMMAX =          18

 POTCAR:    PAW_PBE Te 08Apr2002                  
   VRHFIN =Te: s2p4                                                                                 
   LEXCH  = PE                                                                                      
   EATOM  =   223.2721 eV,   16.4100 Ry                                                             
                                                                                                    
   TITEL  = PAW_PBE Te 08Apr2002                                                                    
   LULTRA =        F    use ultrasoft PP ?                                                          
   IUNSCR =        1    unscreen: 0-lin 1-nonlin 2-no                                               
   RPACOR =    2.200    partial core radius                                                         
   POMASS =  127.600; ZVAL   =    6.000    mass and valenz                                          
   RCORE  =    2.300    outmost cutoff radius                                                       
   RWIGS  =    2.900; RWIGS  =    1.535    wigner-seitz radius (au A)                               
   ENMAX  =  174.982; ENMIN  =  131.236 eV                                                          
   ICORE  =        3    local potential                                                             
   LCOR   =        T    correct aug charges                                                         
   LPAW   =        T    paw PP                                                                      
   EAUG   =  368.792                                                                                
   DEXC   =    0.000                                                                                
   RMAX   =    2.345    core radius for proj-oper                                                   
   RAUG   =    1.300    factor for augmentation sphere                                              
   RDEP   =    2.397    radius for radial grids                                                     
   RDEPT  =    2.174    core radius for aug-charge                                                  
                                                                                                    
   Atomic configuration                                                                             
   13 entries                                                                                       
     n  l   j            E        occ.                                                              
     1  0  0.50    -31621.2075   2.0000                                                             
     2  0  0.50     -4848.7941   2.0000                                                             
     2  1  1.50     -4352.1960   6.0000                                                             
     3  0  0.50      -964.9612   2.0000                                                             
     3  1  1.50      -803.6179   6.0000                                                             
     3  2  2.50      -559.8710  10.0000                                                             
     4  0  0.50      -164.3522   2.0000                                                             
     4  1  1.50      -114.3756   6.0000                                                             
     4  2  2.50       -41.6483  10.0000                                                             
     5  0  0.50       -15.1072   2.0000                                                             
     5  1  0.50        -5.9526   4.0000                                                             
     5  2  1.50        -5.4423   0.0000                                                             
     4  3  2.50        -5.4423   0.0000                                                             
   Description                                                                                      
     l       E           TYP  RCUT    TYP  RCUT                                                     
     0    -15.1072389     23  2.300                                                                 
     0    -16.4678215     23  2.300                                                                 
     1     -5.9526306     23  2.300                                                                 
     1     -2.4873968     23  2.300                                                                 
     2     -5.4423304     23  2.300                                                                 
     3     -1.3605826     23  2.300                                                                 
  local pseudopotential read in
  partial core-charges read in
  partial kinetic energy density read in
  atomic valenz-charges read in
  non local Contribution for L=           0  read in
    real space projection operators read in
  non local Contribution for L=           0  read in
    real space projection operators read in
  non local Contribution for L=           1  read in
    real space projection operators read in
  non local Contribution for L=           1  read in
    real space projection operators read in
  non local Contribution for L=           2  read in
    real space projection operators read in
    PAW grid and wavefunctions read in

   number of l-projection  operators is LMAX  =           5
   number of lm-projection operators is LMMAX =          13

 -----------------------------------------------------------------------------
|                                                                             |
|               ----> ADVICE to this user running VASP <----                  |
|                                                                             |
|     You have a (more or less) 'large supercell' and for larger cells it     |
|     might be more efficient to use real-space projection operators.         |
|     Therefore, try LREAL= Auto in the INCAR file.                           |
|     Mind: For very accurate calculation, you might also keep the            |
|     reciprocal projection scheme (i.e. LREAL=.FALSE.).                      |
|                                                                             |
 -----------------------------------------------------------------------------

  PAW_PBE Cd 06Sep2000                  :
 energy of atom  1       EATOM=-1293.1815
 kinetic energy error for atom=    0.0084 (will be added to EATOM!!)
  PAW_PBE Te 08Apr2002                  :
 energy of atom  2       EATOM= -223.2721
 kinetic energy error for atom=    0.0008 (will be added to EATOM!!)


 POSCAR: Cd33 Te32
  positions in direct lattice
  No initial velocities read in
 exchange correlation table for  LEXCH =        8
   RHO(1)=    0.500       N(1)  =     2000
   RHO(2)=  100.500       N(2)  =     4000



--------------------------------------------------------------------------------------------------------


 ion  position               nearest neighbor table
   1  0.004  0.996  0.004-  44 2.79  35 2.93  54 2.93  65 2.93  33 2.94
   2  0.001  0.999  0.497-  55 2.82  34 2.82  64 2.82  45 2.84
   3  0.001  0.503  0.001-  63 2.82  56 2.82  37 2.82  42 2.84
   4  1.000  0.501  0.499-  57 2.82  62 2.82  36 2.82  43 2.84
   5  0.497  0.999  0.001-  39 2.82  50 2.82  61 2.82  48 2.84
   6  0.499  0.000  0.499-  38 2.82  51 2.82  60 2.82  49 2.84
   7  0.499  0.501  1.000-  41 2.82  59 2.82  52 2.82  46 2.84
   8  0.501  0.499  0.501-  47 2.82  40 2.83  53 2.83  58 2.83
   9  0.001  0.251  0.253-  54 2.82  34 2.82  62 2.82  42 2.84
  10  0.004  0.254  0.746-  43 2.79  35 2.93  55 2.93  63 2.93  33 2.94
  11  1.000  0.749  0.251-  56 2.82  64 2.82  36 2.82  44 2.84
  12  0.001  0.747  0.749-  65 2.82  57 2.82  37 2.82  45 2.84
  13  0.499  0.250  0.251-  38 2.82  50 2.82  58 2.82  46 2.84
  14  0.497  0.251  0.749-  39 2.82  51 2.82  59 2.82  47 2.84
  15  0.501  0.751  0.249-  48 2.82  40 2.83  52 2.83  60 2.83
  16  0.499  0.749  0.750-  41 2.82  61 2.82  53 2.82  49 2.84
  17  0.251  0.000  0.251-  34 2.82  50 2.82  60 2.82  44 2.84
  18  0.253  0.999  0.749-  35 2.82  51 2.82  61 2.82  45 2.84
  19  0.249  0.499  0.249-  42 2.82  36 2.83  52 2.83  58 2.83
  20  0.251  0.501  0.750-  37 2.82  59 2.82  53 2.82  43 2.84
  21  0.749  0.999  0.253-  54 2.82  38 2.82  64 2.82  48 2.84
  22  0.746  0.996  0.746-  49 2.79  39 2.93  55 2.93  65 2.93  33 2.94
  23  0.750  0.501  0.251-  56 2.82  62 2.82  40 2.82  46 2.84
  24  0.749  0.503  0.749-  63 2.82  57 2.82  41 2.82  47 2.84
  25  0.253  0.251  0.001-  35 2.82  50 2.82  59 2.82  42 2.84
  26  0.251  0.250  0.499-  34 2.82  51 2.82  58 2.82  43 2.84
  27  0.251  0.749  1.000-  37 2.82  61 2.82  52 2.82  44 2.84
  28  0.249  0.751  0.501-  45 2.82  36 2.83  53 2.83  60 2.83
  29  0.746  0.254  0.004-  46 2.79  39 2.93  54 2.93  63 2.93  33 2.94
  30  0.749  0.251  0.497-  55 2.82  38 2.82  62 2.82  47 2.84
  31  0.749  0.747  0.001-  65 2.82  56 2.82  41 2.82  48 2.84
  32  0.750  0.749  0.499-  57 2.82  64 2.82  40 2.82  49 2.84
  33  0.875  0.125  0.875-   1 2.94  10 2.94  22 2.94  29 2.94  35 3.37  39 3.37  54 3.37  55 3.37
                            63 3.37  65 3.37
  34  0.127  0.125  0.375-  17 2.82  26 2.82   2 2.82   9 2.82
  35  0.133  0.125  0.875-  18 2.82  25 2.82  10 2.93   1 2.93  33 3.37
  36  0.126  0.625  0.375-   4 2.82  11 2.82  19 2.83  28 2.83
  37  0.127  0.625  0.875-  20 2.82  27 2.82   3 2.82  12 2.82
  38  0.623  0.125  0.375-  13 2.82   6 2.82  21 2.82  30 2.82
  39  0.617  0.125  0.875-  14 2.82   5 2.82  22 2.93  29 2.93  33 3.37
  40  0.624  0.625  0.375-  23 2.82  32 2.82   8 2.83  15 2.83
  41  0.623  0.625  0.875-   7 2.82  16 2.82  31 2.82  24 2.82
  42  0.125  0.375  0.125-  19 2.82   9 2.84  25 2.84   3 2.84
  43  0.127  0.377  0.623-  10 2.79   4 2.84  26 2.84  20 2.84
  44  0.127  0.873  0.127-   1 2.79  11 2.84  17 2.84  27 2.84
  45  0.125  0.875  0.625-  28 2.82  18 2.84   2 2.84  12 2.84
  46  0.623  0.377  0.127-  29 2.79  13 2.84  23 2.84   7 2.84
  47  0.625  0.375  0.625-   8 2.82  14 2.84  24 2.84  30 2.84
  48  0.625  0.875  0.125-  15 2.82  21 2.84   5 2.84  31 2.84
  49  0.623  0.873  0.623-  22 2.79  32 2.84   6 2.84  16 2.84
  50  0.375  0.125  0.127-  17 2.82  13 2.82   5 2.82  25 2.82
  51  0.375  0.125  0.623-   6 2.82  26 2.82  18 2.82  14 2.82
  52  0.375  0.625  0.126-   7 2.82  27 2.82  19 2.83  15 2.83
  53  0.375  0.625  0.624-  16 2.82  20 2.82   8 2.83  28 2.83
  54  0.875  0.125  0.133-   9 2.82  21 2.82   1 2.93  29 2.93  33 3.37
  55  0.875  0.125  0.617-  30 2.82   2 2.82  22 2.93  10 2.93  33 3.37
  56  0.875  0.625  0.127-  11 2.82  23 2.82   3 2.82  31 2.82
  57  0.875  0.625  0.623-   4 2.82  32 2.82  12 2.82  24 2.82
  58  0.375  0.376  0.375-  26 2.82  13 2.82  19 2.83   8 2.83
  59  0.375  0.377  0.875-   7 2.82  20 2.82  14 2.82  25 2.82
  60  0.375  0.874  0.375-   6 2.82  17 2.82  15 2.83  28 2.83
  61  0.375  0.873  0.875-  16 2.82  27 2.82   5 2.82  18 2.82
  62  0.875  0.377  0.375-   4 2.82  23 2.82   9 2.82  30 2.82
  63  0.875  0.383  0.875-  24 2.82   3 2.82  10 2.93  29 2.93  33 3.37
  64  0.875  0.873  0.375-  11 2.82  32 2.82   2 2.82  21 2.82
  65  0.875  0.867  0.875-  12 2.82  31 2.82   1 2.93  22 2.93  33 3.37


IMPORTANT INFORMATION: All symmetrisations will be switched off!
NOSYMM: (Re-)initialisation of all symmetry stuff for point group C_1.


----------------------------------------------------------------------------------------

                                     Primitive cell                                     

  volume of cell :    2241.2856

  direct lattice vectors                    reciprocal lattice vectors
    13.086768000  0.000000000  0.000000000     0.076413061  0.000000000  0.000000000
     0.000000000 13.086768000  0.000000000     0.000000000  0.076413061  0.000000000
     0.000000000  0.000000000 13.086768000     0.000000000  0.000000000  0.076413061

  length of vectors
    13.086768000 13.086768000 13.086768000     0.076413061  0.076413061  0.076413061

  position of ions in fractional coordinates (direct lattice)
     0.004485000  0.995515000  0.004485000
     0.001247000  0.998753000  0.496959000
     0.001247000  0.503041000  0.001247000
     0.999625000  0.501218000  0.498782000
     0.496959000  0.998753000  0.001247000
     0.498781000  0.000375000  0.498781000
     0.498781000  0.501219000  0.999625000
     0.500528000  0.499472000  0.500528000
     0.001247000  0.251247000  0.253040000
     0.004486000  0.254485000  0.745515000
     0.999625000  0.748782000  0.251218000
     0.001247000  0.746959000  0.748753000
     0.498782000  0.249625000  0.251219000
     0.496960000  0.251247000  0.748753000
     0.500528000  0.750528000  0.249472000
     0.498781000  0.748781000  0.750375000
     0.251219000  0.000375000  0.251219000
     0.253040000  0.998753000  0.748753000
     0.249472000  0.499472000  0.249472000
     0.251219000  0.501219000  0.750375000
     0.748753000  0.998753000  0.253040000
     0.745514000  0.995515000  0.745515000
     0.750375000  0.501219000  0.251219000
     0.748753000  0.503040000  0.748753000
     0.253040000  0.251247000  0.001247000
     0.251219000  0.249625000  0.498781000
     0.251219000  0.748781000  0.999625000
     0.249472000  0.750528000  0.500528000
     0.745514000  0.254485000  0.004485000
     0.748753000  0.251247000  0.496960000
     0.748753000  0.746959000  0.001247000
     0.750375000  0.748782000  0.498782000
     0.875000000  0.125000000  0.875000000
     0.126656000  0.125000000  0.375000000
     0.132779000  0.125000000  0.875000000
     0.125892000  0.625000000  0.375000000
     0.126656000  0.625000000  0.875000000
     0.623344000  0.125000000  0.375000000
     0.617221000  0.125000000  0.875000000
     0.624108000  0.625000000  0.375000000
     0.623344000  0.625000000  0.875000000
     0.124848000  0.374848000  0.124848000
     0.127488000  0.377488000  0.622512000
     0.127488000  0.872512000  0.127488000
     0.124848000  0.875152000  0.625152000
     0.622512000  0.377488000  0.127488000
     0.625152000  0.374848000  0.625152000
     0.625152000  0.875152000  0.124848000
     0.622512000  0.872512000  0.622512000
     0.375000000  0.125000000  0.126656000
     0.375000000  0.125000000  0.623344000
     0.375000000  0.625000000  0.125892000
     0.375000000  0.625000000  0.624108000
     0.875000000  0.125000000  0.132779000
     0.875000000  0.125000000  0.617221000
     0.875000000  0.625000000  0.126656000
     0.875000000  0.625000000  0.623344000
     0.375000000  0.375892000  0.375000000
     0.375000000  0.376656000  0.875000000
     0.375000000  0.874108000  0.375000000
     0.375000000  0.873344000  0.875000000
     0.875000000  0.376656000  0.375000000
     0.875000000  0.382779000  0.875000000
     0.875000000  0.873344000  0.375000000
     0.875000000  0.867221000  0.875000000

  ion indices of the primitive-cell ions
   primitive index   ion index
                 1           1
                 2           2
                 3           3
                 4           4
                 5           5
                 6           6
                 7           7
                 8           8
                 9           9
                10          10
                11          11
                12          12
                13          13
                14          14
                15          15
                16          16
                17          17
                18          18
                19          19
                20          20
                21          21
                22          22
                23          23
                24          24
                25          25
                26          26
                27          27
                28          28
                29          29
                30          30
                31          31
                32          32
                33          33
                34          34
                35          35
                36          36
                37          37
                38          38
                39          39
                40          40
                41          41
                42          42
                43          43
                44          44
                45          45
                46          46
                47          47
                48          48
                49          49
                50          50
                51          51
                52          52
                53          53
                54          54
                55          55
                56          56
                57          57
                58          58
                59          59
                60          60
                61          61
                62          62
                63          63
                64          64
                65          65

----------------------------------------------------------------------------------------



 KPOINTS: Automatically generated mesh            

Read explicit list of k-points.

 Found      8 k-points:

 Following reciprocal coordinates:
            Coordinates               Weight
  0.000000  0.000000  0.000000      0.125000
  0.500000  0.000000  0.000000      0.125000
  0.000000  0.500000  0.000000      0.125000
  0.500000  0.500000  0.000000      0.125000
  0.000000  0.000000  0.500000      0.125000
  0.500000  0.000000  0.500000      0.125000
  0.000000  0.500000  0.500000      0.125000
  0.500000  0.500000  0.500000      0.125000

 Following cartesian coordinates:
            Coordinates               Weight
  0.000000  0.000000  0.000000      0.125000
  0.038207  0.000000  0.000000      0.125000
  0.000000  0.038207  0.000000      0.125000
  0.038207  0.038207  0.000000      0.125000
  0.000000  0.000000  0.038207      0.125000
  0.038207  0.000000  0.038207      0.125000
  0.000000  0.038207  0.038207      0.125000
  0.038207  0.038207  0.038207      0.125000

 
 Subroutine IBZKPT_HF returns following result:
 ==============================================
 
 Found      8 k-points in 1st BZ
 the following      8 k-points will be used (e.g. in the exchange kernel)
 Following reciprocal coordinates:   # in IRBZ
  0.000000  0.000000  0.000000    0.12500000   1 t-inv F
  0.500000  0.000000  0.000000    0.12500000   2 t-inv F
  0.000000  0.500000  0.000000    0.12500000   3 t-inv F
  0.500000  0.500000  0.000000    0.12500000   4 t-inv F
  0.000000  0.000000  0.500000    0.12500000   5 t-inv F
  0.500000  0.000000  0.500000    0.12500000   6 t-inv F
  0.000000  0.500000  0.500000    0.12500000   7 t-inv F
  0.500000  0.500000  0.500000    0.12500000   8 t-inv F


--------------------------------------------------------------------------------------------------------




 Dimension of arrays:
   k-points           NKPTS =      8   k-points in BZ     NKDIM =      8   number of bands    NBANDS=    784
   number of dos      NEDOS =   2000   number of ions     NIONS =     65
   non local maximal  LDIM  =      6   non local SUM 2l+1 LMDIM =     18
   total plane-waves  NPLWV = 884736
   max r-space proj   IRMAX =      1   max aug-charges    IRDMAX= 183854
   dimension x,y,z NGX =    96 NGY =   96 NGZ =   96
   dimension x,y,z NGXF=   192 NGYF=  192 NGZF=  192
   support grid    NGXF=   384 NGYF=  384 NGZF=  384
   ions per type =              33  32
   NGX,Y,Z   is equivalent  to a cutoff of  12.20, 12.20, 12.20 a.u.
   NGXF,Y,Z  is equivalent  to a cutoff of  24.39, 24.39, 24.39 a.u.

 SYSTEM =  unknown system                          
 POSCAR =  Cd33 Te32                               

 Startparameter for this run:
   NWRITE =      2    write-flag & timer
   PREC   = accura    normal or accurate (medium, high low for compatibility)
   ISTART =      0    job   : 0-new  1-cont  2-samecut
   ICHARG =      1    charge: 1-file 2-atom 10-const
   ISPIN  =      1    spin polarized calculation?
   LNONCOLLINEAR =      T non collinear calculations
   LSORBIT =      T    spin-orbit coupling
   INIWAV =      1    electr: 0-lowe 1-rand  2-diag
   LASPH  =      T    aspherical Exc in radial PAW
 Electronic Relaxation 1
   ENCUT  =  450.0 eV  33.07 Ry    5.75 a.u.  22.64 22.64 22.64*2*pi/ulx,y,z
   ENINI  =  450.0     initial cutoff
   ENAUG  =  456.1 eV  augmentation charge cutoff
   NELM   =      6;   NELMIN=  2; NELMDL= -5     # of ELM steps 
   EDIFF  = 0.1E-05   stopping-criterion for ELM
   LREAL  =      F    real-space projection
   NLSPLINE    = F    spline interpolate recip. space projectors
   LCOMPAT=      F    compatible to vasp.4.4
   GGA_COMPAT  = T    GGA compatible to vasp.4.4-vasp.4.6
   LMAXPAW     = -100 max onsite density
   LMAXMIX     =    2 max onsite mixed and CHGCAR
   VOSKOWN=      0    Vosko Wilk Nusair interpolation
   ROPT   =    0.00000   0.00000
 Ionic relaxation
   EDIFFG = -.1E-01   stopping-criterion for IOM
   NSW    =      0    number of steps for IOM
   NBLOCK =      1;   KBLOCK =      1    inner block; outer block 
   IBRION =     -1    ionic relax: 0-MD 1-quasi-New 2-CG
   NFREE  =      0    steps in history (QN), initial steepest desc. (CG)
   ISIF   =      2    stress and relaxation
   IWAVPR =     10    prediction:  0-non 1-charg 2-wave 3-comb
   ISYM   =      0    0-nonsym 1-usesym 2-fastsym
   LCORR  =      T    Harris-Foulkes like correction to forces

   POTIM  = 0.5000    time-step for ionic-motion
   TEIN   =    0.0    initial temperature
   TEBEG  =    0.0;   TEEND  =   0.0 temperature during run
   SMASS  =  -3.00    Nose mass-parameter (am)
   estimated Nose-frequenzy (Omega)   =  0.10E-29 period in steps = 0.13E+47 mass=  -0.391E-26a.u.
   SCALEE = 1.0000    scale energy and forces
   NPACO  =    256;   APACO  = 10.0  distance and # of slots for P.C.
   PSTRESS=    0.0 pullay stress

  Mass of Ions in am
   POMASS = 112.41127.60
  Ionic Valenz
   ZVAL   =  12.00  6.00
  Atomic Wigner-Seitz radii
   RWIGS  =  -1.00 -1.00
  virtual crystal weights 
   VCA    =   1.00  1.00
   NELECT =     588.0000    total number of electrons
   NUPDOWN=      -1.0000    fix difference up-down

 DOS related values:
   EMIN   =  10.00;   EMAX   =-10.00  energy-range for DOS
   EFERMI =   0.00
   ISMEAR =     0;   SIGMA  =   0.05  broadening in eV -4-tet -1-fermi 0-gaus

 Electronic relaxation 2 (details)
   IALGO  =     58    algorithm
   LDIAG  =      T    sub-space diagonalisation (order eigenvalues)
   LSUBROT=      F    optimize rotation matrix (better conditioning)
   TURBO    =      0    0=normal 1=particle mesh
   IRESTART =      0    0=no restart 2=restart with 2 vectors
   NREBOOT  =      0    no. of reboots
   NMIN     =      0    reboot dimension
   EREF     =   0.00    reference energy to select bands
   IMIX   =      4    mixing-type and parameters
     AMIX     =   0.40;   BMIX     =  1.00
     AMIX_MAG =   1.60;   BMIX_MAG =  1.00
     AMIN     =   0.10
     WC   =   100.;   INIMIX=   1;  MIXPRE=   1;  MAXMIX= -45

 Intra band minimization:
   WEIMIN = 0.0000     energy-eigenvalue tresh-hold
   EBREAK =  0.32E-09  absolut break condition
   DEPER  =   0.30     relativ break condition  

   TIME   =   0.40     timestep for ELM

  volume/ion in A,a.u.               =      34.48       232.69
  Fermi-wavevector in a.u.,A,eV,Ry     =   1.048017  1.980464 14.943809  1.098339
  Thomas-Fermi vector in A             =   2.182921

 Write flags
   LWAVE        =      T    write WAVECAR
   LDOWNSAMPLE  =      F    k-point downsampling of WAVECAR
   LCHARG       =      T    write CHGCAR
   LVTOT        =      F    write LOCPOT, total local potential
   LVHAR        =      T    write LOCPOT, Hartree potential only
   LELF         =      F    write electronic localiz. function (ELF)
   LORBIT       =     11    0 simple, 1 ext, 2 COOP (PROOUT), +10 PAW based schemes


 Dipole corrections
   LMONO  =      F    monopole corrections only (constant potential shift)
   LDIPOL =      F    correct potential (dipole corrections)
   IDIPOL =      0    1-x, 2-y, 3-z, 4-all directions 
   EPSILON=  1.0000000 bulk dielectric constant

 Exchange correlation treatment:
   GGA     =    --    GGA type
   LEXCH   =     8    internal setting for exchange type
   LIBXC   =     F    Libxc                    
   VOSKOWN =     0    Vosko Wilk Nusair interpolation
   EXXOEP  =     0    0=HF, 1=EXX-LHF (local Hartree Fock) 2=EXX OEP
   LHFCALC =     T    Hartree Fock is set to
   LSYMGRAD=     F    symmetrize gradient (conserves proper symmetry)
   PRECFOCK=fast      Normal, Fast or Accurate (Low or Medium for compatibility)
   LRHFCALC=     F    long range Hartree Fock
   LRSCOR  =     F    long range correlation only (use DFT for short range part)
   LTHOMAS =     F    Thomas Fermi screening in HF
   LMODELHF=     F    short range full HF, long range fraction AEXX
   FOCKCORR=     1    mode to apply convergence corrections
   LFOCKACE=     T    use Adeptively-Compressed-Exchange operator
   ENCUT4O =  -1.0   cutoff for four orbital integrals eV
   LMAXFOCK=     4    L truncation for augmentation on plane wave grid
   LMAXFOCKAE=  -1    L truncation for all-electron charge restoration on plane wave grid
   NMAXFOCKAE=   1    number of basis functions for all-electron charge restoration
   LFOCKAEDFT=     F  apply the AE augmentation even for DFT
   NKREDX  =     1    reduce k-point grid by
   NKREDY  =     1    reduce k-point grid by
   NKREDZ  =     1    reduce k-point grid by
   SHIFTRED=     F    shift reduced grid of Gamma
   HFKIDENT=     F    idential grid for each k-point
   ODDONLY =     F    use only odd q-grid points
   EVENONLY=     F    use only even q-grid points
   HFALPHA =   -1.0000 decay constant for conv. correction
   MCALPHA =    0.0000 extent of test-charge in conv. correction in multipole expansion
   AEXX    =    0.2500 exact exchange contribution
   HFSCREEN=    0.2000 screening length (either q_TF or 0.3 A-1)
   HFSCREENC=   0.2000 screening length for correlation (either q_TF or 0.3 A-1)
   HFRCUT  =    0.0000 spherical cutoff for potential kernel
   ALDAX   =    0.7500 LDA exchange part
   AGGAX   =    0.7500 GGA exchange part
   ALDAC   =    1.0000 LDA correlation
   AGGAC   =    1.0000 GGA correlation
   ENCUTFOCK=  -1.0 apply spherical cutoff to Coloumb kernel
   NBANDSGWLOW=     1    first orbital included in HF term
   NBLOCK_FOCK=    64    blocking factor in FOCK_ACC

 Linear response parameters
   LEPSILON=     F    determine dielectric tensor
   LRPA    =     F    only Hartree local field effects (RPA)
   LNABLA  =     F    use nabla operator in PAW spheres
   LVEL    =     F    velocity operator in full k-point grid
   CSHIFT  =0.1000    complex shift for real part using Kramers Kronig
   OMEGAMAX=  -1.0    maximum frequency
   DEG_THRESHOLD= 0.2000000E-02 threshold for treating states as degnerate
   RTIME   =   -0.100 relaxation time in fs
  (WPLASMAI=    0.000 imaginary part of plasma frequency in eV, 0.658/RTIME)
   DFIELD  = 0.0000000 0.0000000 0.0000000 field for delta impulse in time

  Optional k-point grid parameters
   LKPOINTS_OPT  =     F    use optional k-point grid
   KPOINTS_OPT_MODE=     1    mode for optional k-point grid

 Orbital magnetization related:
   ORBITALMAG=     F  switch on orbital magnetization
   LCHIMAG   =     F  perturbation theory with respect to B field
   DQ        =  0.001000  dq finite difference perturbation B field
   LLRAUG    =     F  two centre corrections for induced B field



--------------------------------------------------------------------------------------------------------


 Static calculation
 charge density and potential will be updated during run
 non collinear spin polarized calculation
 Conjugate gradient for all bands (Freysoldt, et al. PRB 79, 241103 (2009))
 preconditioned conjugated gradient                                        
 perform sub-space diagonalisation
    before iterative eigenvector-optimisation
 modified Broyden-mixing scheme, WC =      100.0
 initial mixing is a Kerker type mixing with AMIX =  0.4000 and BMIX =      1.0000
 Hartree-type preconditioning will be used
 using additional bands          490
 reciprocal scheme for non local part
 use partial core corrections
 no Harris-corrections to forces 
 use gradient corrections 
 use of overlap-Matrix (Vanderbilt PP)
 Gauss-broadening in eV      SIGMA  =   0.05


--------------------------------------------------------------------------------------------------------


  energy-cutoff  :      450.00
  volume of cell :     2241.29
      direct lattice vectors                 reciprocal lattice vectors
    13.086768000  0.000000000  0.000000000     0.076413061  0.000000000  0.000000000
     0.000000000 13.086768000  0.000000000     0.000000000  0.076413061  0.000000000
     0.000000000  0.000000000 13.086768000     0.000000000  0.000000000  0.076413061

  length of vectors
    13.086768000 13.086768000 13.086768000     0.076413061  0.076413061  0.076413061



 k-points in units of 2pi/SCALE and weight: Automatically generated mesh            
   0.00000000  0.00000000  0.00000000       0.125
   0.03820653  0.00000000  0.00000000       0.125
   0.00000000  0.03820653  0.00000000       0.125
   0.03820653  0.03820653  0.00000000       0.125
   0.00000000  0.00000000  0.03820653       0.125
   0.03820653  0.00000000  0.03820653       0.125
   0.00000000  0.03820653  0.03820653       0.125
   0.03820653  0.03820653  0.03820653       0.125

 k-points in reciprocal lattice and weights: Automatically generated mesh            
   0.00000000  0.00000000  0.00000000       0.125
   0.50000000  0.00000000  0.00000000       0.125
   0.00000000  0.50000000  0.00000000       0.125
   0.50000000  0.50000000  0.00000000       0.125
   0.00000000  0.00000000  0.50000000       0.125
   0.50000000  0.00000000  0.50000000       0.125
   0.00000000  0.50000000  0.50000000       0.125
   0.50000000  0.50000000  0.50000000       0.125

 position of ions in fractional coordinates (direct lattice) 
   0.00448500  0.99551500  0.00448500
   0.00124700  0.99875300  0.49695900
   0.00124700  0.50304100  0.00124700
   0.99962500  0.50121800  0.49878200
   0.49695900  0.99875300  0.00124700
   0.49878100  0.00037500  0.49878100
   0.49878100  0.50121900  0.99962500
   0.50052800  0.49947200  0.50052800
   0.00124700  0.25124700  0.25304000
   0.00448600  0.25448500  0.74551500
   0.99962500  0.74878200  0.25121800
   0.00124700  0.74695900  0.74875300
   0.49878200  0.24962500  0.25121900
   0.49696000  0.25124700  0.74875300
   0.50052800  0.75052800  0.24947200
   0.49878100  0.74878100  0.75037500
   0.25121900  0.00037500  0.25121900
   0.25304000  0.99875300  0.74875300
   0.24947200  0.49947200  0.24947200
   0.25121900  0.50121900  0.75037500
   0.74875300  0.99875300  0.25304000
   0.74551400  0.99551500  0.74551500
   0.75037500  0.50121900  0.25121900
   0.74875300  0.50304000  0.74875300
   0.25304000  0.25124700  0.00124700
   0.25121900  0.24962500  0.49878100
   0.25121900  0.74878100  0.99962500
   0.24947200  0.75052800  0.50052800
   0.74551400  0.25448500  0.00448500
   0.74875300  0.25124700  0.49696000
   0.74875300  0.74695900  0.00124700
   0.75037500  0.74878200  0.49878200
   0.87500000  0.12500000  0.87500000
   0.12665600  0.12500000  0.37500000
   0.13277900  0.12500000  0.87500000
   0.12589200  0.62500000  0.37500000
   0.12665600  0.62500000  0.87500000
   0.62334400  0.12500000  0.37500000
   0.61722100  0.12500000  0.87500000
   0.62410800  0.62500000  0.37500000
   0.62334400  0.62500000  0.87500000
   0.12484800  0.37484800  0.12484800
   0.12748800  0.37748800  0.62251200
   0.12748800  0.87251200  0.12748800
   0.12484800  0.87515200  0.62515200
   0.62251200  0.37748800  0.12748800
   0.62515200  0.37484800  0.62515200
   0.62515200  0.87515200  0.12484800
   0.62251200  0.87251200  0.62251200
   0.37500000  0.12500000  0.12665600
   0.37500000  0.12500000  0.62334400
   0.37500000  0.62500000  0.12589200
   0.37500000  0.62500000  0.62410800
   0.87500000  0.12500000  0.13277900
   0.87500000  0.12500000  0.61722100
   0.87500000  0.62500000  0.12665600
   0.87500000  0.62500000  0.62334400
   0.37500000  0.37589200  0.37500000
   0.37500000  0.37665600  0.87500000
   0.37500000  0.87410800  0.37500000
   0.37500000  0.87334400  0.87500000
   0.87500000  0.37665600  0.37500000
   0.87500000  0.38277900  0.87500000
   0.87500000  0.87334400  0.37500000
   0.87500000  0.86722100  0.87500000

 position of ions in cartesian coordinates  (Angst):
   0.05869415 13.02807385  0.05869415
   0.01631920 13.07044880  6.50358714
   0.01631920  6.58318086  0.01631920
  13.08186046  6.55932368  6.52744432
   6.50358714 13.07044880  0.01631920
   6.52743123  0.00490754  6.52743123
   6.52743123  6.55933677 13.08186046
   6.55029381  6.53647419  6.55029381
   0.01631920  3.28801120  3.31147577
   0.05870724  3.33038615  9.75638185
  13.08186046  9.79913632  3.28763168
   0.01631920  9.77527914  9.79875680
   6.52744432  3.26678446  3.28764477
   6.50360023  3.28801120  9.79875680
   6.55029381  9.82198581  3.26478219
   6.52743123  9.79912323  9.81998354
   3.28764477  0.00490754  3.28764477
   3.31147577 13.07044880  9.79875680
   3.26478219  6.53647419  3.26478219
   3.28764477  6.55933677  9.81998354
   9.79875680 13.07044880  3.31147577
   9.75636876 13.02807385  9.75638185
   9.81998354  6.55933677  3.28764477
   9.79875680  6.58316777  9.79875680
   3.31147577  3.28801120  0.01631920
   3.28764477  3.26678446  6.52743123
   3.28764477  9.79912323 13.08186046
   3.26478219  9.82198581  6.55029381
   9.75636876  3.33038615  0.05869415
   9.79875680  3.28801120  6.50360023
   9.79875680  9.77527914  0.01631920
   9.81998354  9.79913632  6.52744432
  11.45092200  1.63584600 11.45092200
   1.65751769  1.63584600  4.90753800
   1.73764797  1.63584600 11.45092200
   1.64751940  8.17923000  4.90753800
   1.65751769  8.17923000 11.45092200
   8.15755831  1.63584600  4.90753800
   8.07742803  1.63584600 11.45092200
   8.16755660  8.17923000  4.90753800
   8.15755831  8.17923000 11.45092200
   1.63385681  4.90554881  1.63385681
   1.66840588  4.94009788  8.14667012
   1.66840588 11.41836212  1.66840588
   1.63385681 11.45291119  8.18121919
   8.14667012  4.94009788  1.66840588
   8.18121919  4.90554881  8.18121919
   8.18121919 11.45291119  1.63385681
   8.14667012 11.41836212  8.14667012
   4.90753800  1.63584600  1.65751769
   4.90753800  1.63584600  8.15755831
   4.90753800  8.17923000  1.64751940
   4.90753800  8.17923000  8.16755660
  11.45092200  1.63584600  1.73764797
  11.45092200  1.63584600  8.07742803
  11.45092200  8.17923000  1.65751769
  11.45092200  8.17923000  8.15755831
   4.90753800  4.91921140  4.90753800
   4.90753800  4.92920969 11.45092200
   4.90753800 11.43924860  4.90753800
   4.90753800 11.42925031 11.45092200
  11.45092200  4.92920969  4.90753800
  11.45092200  5.00933997 11.45092200
  11.45092200 11.42925031  4.90753800
  11.45092200 11.34912003 11.45092200

 Euler angles ALPHA=     0.0000000  BETA=     0.0000000

 transformation matrix from SAXIS to cartesian coordinates
 ---------------------------------------------------------
     1.0000000 m_x    -0.0000000 m_y     0.0000000 m_z
     0.0000000 m_x     1.0000000 m_y     0.0000000 m_z
    -0.0000000 m_x     0.0000000 m_y     1.0000000 m_z

 transformation matrix from cartesian coordinates to SAXIS
 ---------------------------------------------------------
     1.0000000 m_x     0.0000000 m_y    -0.0000000 m_z
    -0.0000000 m_x     1.0000000 m_y     0.0000000 m_z
     0.0000000 m_x     0.0000000 m_y     1.0000000 m_z




--------------------------------------------------------------------------------------------------------


 k-point   1 :   0.0000 0.0000 0.0000  plane waves:   97002
 k-point   2 :   0.5000 0.0000 0.0000  plane waves:   97356
 k-point   3 :   0.0000 0.5000 0.0000  plane waves:   97356
 k-point   4 :   0.5000 0.5000 0.0000  plane waves:   96960
 k-point   5 :   0.0000 0.0000 0.5000  plane waves:   97356
 k-point   6 :   0.5000 0.0000 0.5000  plane waves:   96960
 k-point   7 :   0.0000 0.5000 0.5000  plane waves:   96960
 k-point   8 :   0.5000 0.5000 0.5000  plane waves:   96832

 maximum and minimum number of plane-waves per node :     24376    24184

 maximum number of plane-waves:     97356
 maximum index in each direction: 
   IXMAX=   22   IYMAX=   22   IZMAX=   22
   IXMIN=  -23   IYMIN=  -23   IZMIN=  -23


 parallel 3D FFT for wavefunctions:
    minimum data exchange during FFTs selected (reduces bandwidth)
 parallel 3D FFT for charge:
    minimum data exchange during FFTs selected (reduces bandwidth)


 FFT grid for exact exchange (Hartree Fock) 
  NGX = 48; NGY = 48; NGZ = 48


 Radii for the augmentation spheres in the non-local exchange
 for species   1 augmentation radius   1.444 (default was   1.070)
       energy cutoff for augmentation   1800.0
 for species   2 augmentation radius   1.606 (default was   1.190)
       energy cutoff for augmentation   1800.0

 real space projection operators:
  total allocation   :       9375.20 KBytes
  max/ min on nodes  :       2371.68       2281.25

 Maximum index for augmentation-charges in exchange          207
  SETUP_FOCK is finished

 total amount of memory used by VASP MPI-rank0   640977. kBytes
=======================================================================

   base      :      30000. kBytes
   nonl-proj :      40770. kBytes
   fftplans  :      41333. kBytes
   grid      :      54853. kBytes
   one-center:       1057. kBytes
   HF        :        129. kBytes
   nonlr-proj:       3791. kBytes
   wavefun   :     469044. kBytes

     INWAV:  cpu time      0.0000: real time      0.0000
 Broyden mixing: mesh for mixing (old mesh)
   NGX = 45   NGY = 45   NGZ = 45
  (NGX  =192   NGY  =192   NGZ  =192)
  gives a total of  91125 points

 initial charge density was supplied:
 charge density of overlapping atoms calculated
 number of electron     588.0000000 magnetization      65.0000000     65.0000000     65.0000000
 keeping initial charge density in first step


--------------------------------------------------------------------------------------------------------


 Maximum index for augmentation-charges         3305 (set IRDMAX)


--------------------------------------------------------------------------------------------------------


 First call to EWALD:  gamma=   0.135
 Maximum number of real-space cells 3x 3x 3
 Maximum number of reciprocal cells 3x 3x 3

    FEWALD:  cpu time      0.0084: real time      0.0088


--------------------------------------- Iteration      1(   1)  ---------------------------------------


    POTLOK:  cpu time      0.6113: real time      0.6120
    SETDIJ:  cpu time      1.5725: real time      1.5736
    TRIAL :  cpu time     98.8777: real time     99.1050
    CORREC:  cpu time      0.0022: real time      0.0022
    --------------------------------------------
      LOOP:  cpu time    101.3994: real time    101.6287

 eigenvalue-minimisations  : 12848
 total energy-change (2. order) :-0.6563380E+05  (-0.2676345E+05)
 number of electron     588.0000000 magnetization      65.0000000     65.0000000     65.0000000
 augmentation part      588.0000000 magnetization      65.0000000     65.0000000     65.0000000

 Free energy of the ion-electron system (eV)
  ---------------------------------------------------
  alpha Z        PSCENC =      1642.45118531
  Ewald energy   TEWEN  =    -33940.17512420
  -Hartree energ DENC   =    -17077.89199325
  -exchange      EXHF   =         0.00000000
  -V(xc)+E(xc)   XCENC  =      -705.19542617
  PAW double counting   =     46123.44547363  -111597.00895026
  entropy T*S    EENTRO =        -0.02978219
  eigenvalues    EBANDS =       171.17839656
  atomic energy  EATOM  =     49749.42546356
  ---------------------------------------------------
  free energy    TOTEN  =    -65633.80075702 eV

  energy without entropy =   -65633.77097482  energy(sigma->0) =   -65633.78586592
  exchange ACFDT corr.  =         0.00000000  see jH, gK, PRB 81, 115126


--------------------------------------------------------------------------------------------------------




--------------------------------------- Iteration      1(   2)  ---------------------------------------


    TRIAL :  cpu time    109.0835: real time    109.1448
    CORREC:  cpu time      0.0020: real time      0.0020
    --------------------------------------------
      LOOP:  cpu time    109.0953: real time    109.1718

 eigenvalue-minimisations  : 14336
 total energy-change (2. order) :-0.3584011E+04  (-0.3471456E+04)
 number of electron     588.0000000 magnetization      65.0000000     65.0000000     65.0000000
 augmentation part      588.0000000 magnetization      65.0000000     65.0000000     65.0000000

 Free energy of the ion-electron system (eV)
  ---------------------------------------------------
  alpha Z        PSCENC =      1642.45118531
  Ewald energy   TEWEN  =    -33940.17512420
  -Hartree energ DENC   =    -17077.89199325
  -exchange      EXHF   =         0.00000000
  -V(xc)+E(xc)   XCENC  =      -705.19542617
  PAW double counting   =     46123.44547363  -111597.00895026
  entropy T*S    EENTRO =        -0.00991929
  eigenvalues    EBANDS =     -3412.85224274
  atomic energy  EATOM  =     49749.42546356
  ---------------------------------------------------
  free energy    TOTEN  =    -69217.81153342 eV

  energy without entropy =   -69217.80161413  energy(sigma->0) =   -69217.80657377
  exchange ACFDT corr.  =         0.00000000  see jH, gK, PRB 81, 115126


--------------------------------------------------------------------------------------------------------




--------------------------------------- Iteration      1(   3)  ---------------------------------------


    TRIAL :  cpu time    108.6980: real time    108.7764
    CORREC:  cpu time      0.0018: real time      0.0018
    --------------------------------------------
      LOOP:  cpu time    108.7090: real time    108.8027

 eigenvalue-minimisations  : 14480
 total energy-change (2. order) :-0.2292398E+03  (-0.2272156E+03)
 number of electron     588.0000000 magnetization      65.0000000     65.0000000     65.0000000
 augmentation part      588.0000000 magnetization      65.0000000     65.0000000     65.0000000

 Free energy of the ion-electron system (eV)
  ---------------------------------------------------
  alpha Z        PSCENC =      1642.45118531
  Ewald energy   TEWEN  =    -33940.17512420
  -Hartree energ DENC   =    -17077.89199325
  -exchange      EXHF   =         0.00000000
  -V(xc)+E(xc)   XCENC  =      -705.19542617
  PAW double counting   =     46123.44547363  -111597.00895026
  entropy T*S    EENTRO =        -0.01583478
  eigenvalues    EBANDS =     -3642.08608388
  atomic energy  EATOM  =     49749.42546356
  ---------------------------------------------------
  free energy    TOTEN  =    -69447.05129005 eV

  energy without entropy =   -69447.03545527  energy(sigma->0) =   -69447.04337266
  exchange ACFDT corr.  =         0.00000000  see jH, gK, PRB 81, 115126


--------------------------------------------------------------------------------------------------------




--------------------------------------- Iteration      1(   4)  ---------------------------------------


    TRIAL :  cpu time    117.4549: real time    117.5092
    CORREC:  cpu time      0.0019: real time      0.0019
    --------------------------------------------
      LOOP:  cpu time    117.4678: real time    117.5367

 eigenvalue-minimisations  : 15472
 total energy-change (2. order) :-0.7829458E+01  (-0.7815037E+01)
 number of electron     588.0000000 magnetization      65.0000000     65.0000000     65.0000000
 augmentation part      588.0000000 magnetization      65.0000000     65.0000000     65.0000000

 Free energy of the ion-electron system (eV)
  ---------------------------------------------------
  alpha Z        PSCENC =      1642.45118531
  Ewald energy   TEWEN  =    -33940.17512420
  -Hartree energ DENC   =    -17077.89199325
  -exchange      EXHF   =         0.00000000
  -V(xc)+E(xc)   XCENC  =      -705.19542617
  PAW double counting   =     46123.44547363  -111597.00895026
  entropy T*S    EENTRO =        -0.01437793
  eigenvalues    EBANDS =     -3649.91699862
  atomic energy  EATOM  =     49749.42546356
  ---------------------------------------------------
  free energy    TOTEN  =    -69454.88074794 eV

  energy without entropy =   -69454.86637000  energy(sigma->0) =   -69454.87355897
  exchange ACFDT corr.  =         0.00000000  see jH, gK, PRB 81, 115126


--------------------------------------------------------------------------------------------------------




--------------------------------------- Iteration      1(   5)  ---------------------------------------


    POTLOK:  cpu time      0.7869: real time      0.7874
    SETDIJ:  cpu time      2.4283: real time      2.4287
    TRIAL :  cpu time   3193.7272: real time   3195.6913
    CORREC:  cpu time      0.0018: real time      0.0018
    CHARGE:  cpu time      7.9123: real time      7.9444
    --------------------------------------------
      LOOP:  cpu time   3204.8660: real time   3206.8793

 eigenvalue-minimisations  : 12640
 total energy-change (2. order) : 0.6927793E+05  (-0.3663310E+02)
 number of electron     588.0000006 magnetization       0.1781763      0.1781837      0.1781739
 augmentation part      151.8849718 magnetization       0.4781250      0.4775762      0.4777520

 Free energy of the ion-electron system (eV)
  ---------------------------------------------------
  alpha Z        PSCENC =      1642.45118531
  Ewald energy   TEWEN  =    -33940.17512420
  -Hartree energ DENC   =    -17077.89199325
  -exchange      EXHF   =      1181.72558510
  -V(xc)+E(xc)   XCENC  =      -617.56595420
  PAW double counting   =     46020.13618676   -43994.38451641
  entropy T*S    EENTRO =        -0.00646723
  eigenvalues    EBANDS =     -3140.66195581
  atomic energy  EATOM  =     49749.42546356
  ---------------------------------------------------
  free energy    TOTEN  =      -176.94759037 eV

  energy without entropy =     -176.94112314  energy(sigma->0) =     -176.94435676
  exchange ACFDT corr.  =        -0.02549689  see jH, gK, PRB 81, 115126


--------------------------------------------------------------------------------------------------------




--------------------------------------- Iteration      1(   6)  ---------------------------------------


    POTLOK:  cpu time      0.7677: real time      0.7681
    SETDIJ:  cpu time      2.2564: real time      2.2571
    TRIAL :  cpu time   3106.5911: real time   3109.3318
    CORREC:  cpu time   3072.1881: real time   3074.0161
    EDDIAG:  cpu time   3070.7642: real time   3072.9614
    CHARGE:  cpu time      7.8756: real time      7.8800
    --------------------------------------------
      LOOP:  cpu time   9260.4527: real time   9267.2492

 eigenvalue-minimisations  :     0
 total energy-change (2. order) :-0.7110052E+01  (-0.9991684E+01)
 number of electron     588.0000006 magnetization       0.1379192      0.1378863      0.1378462
 augmentation part      154.8306552 magnetization       0.2149005      0.2141582      0.2142738

 Free energy of the ion-electron system (eV)
  ---------------------------------------------------
  alpha Z        PSCENC =      1642.45118531
  Ewald energy   TEWEN  =    -33940.17512420
  -Hartree energ DENC   =    -16897.32389388
  -exchange      EXHF   =      1143.44234536
  -V(xc)+E(xc)   XCENC  =      -624.69189139
  PAW double counting   =    114357.99928827  -112280.16287368
  entropy T*S    EENTRO =        -0.00692075
  eigenvalues    EBANDS =     -3340.92584489
  atomic energy  EATOM  =     49749.42546356
  ---------------------------------------------------
  free energy    TOTEN  =      -184.05764271 eV

  energy without entropy =     -184.05072195  energy(sigma->0) =     -184.05418233
  exchange ACFDT corr.  =        -0.01399964  see jH, gK, PRB 81, 115126


--------------------------------------------------------------------------------------------------------


  average scaling for gradient   0.9661


 average (electrostatic) potential at core
  the test charge radii are     1.0698  1.1897
  (the norm of the test charge is              1.0000)
       1 -32.9413       2 -32.7833       3 -32.7833       4 -32.8203       5 -32.7838
       6 -32.8202       7 -32.8201       8 -32.8053       9 -32.7835      10 -32.9409
      11 -32.8196      12 -32.7841      13 -32.8203      14 -32.7848      15 -32.8047
      16 -32.8207      17 -32.8199      18 -32.7843      19 -32.8050      20 -32.8213
      21 -32.7852      22 -32.9394      23 -32.8196      24 -32.7849      25 -32.7833
      26 -32.8197      27 -32.8204      28 -32.8040      29 -32.9399      30 -32.7833
      31 -32.7839      32 -32.8196      33 -32.3210      34 -86.9307      35 -86.8789
      36 -86.9266      37 -86.9329      38 -86.9314      39 -86.8789      40 -86.9269
      41 -86.9301      42 -86.8997      43 -87.0282      44 -87.0273      45 -86.8994
      46 -87.0254      47 -86.8980      48 -86.8988      49 -87.0266      50 -86.9325
      51 -86.9316      52 -86.9275      53 -86.9281      54 -86.8790      55 -86.8780
      56 -86.9300      57 -86.9317      58 -86.9275      59 -86.9313      60 -86.9285
      61 -86.9329      62 -86.9304      63 -86.8808      64 -86.9316      65 -86.8803



 E-fermi :   3.3484     XC(G=0):  -7.0325     alpha+bet : -7.2837

 Fermi energy:         3.3484477901

 k-point     1 :       0.0000    0.0000    0.0000
  band No.  band energies     occupation 
      1     -10.1309      1.00000
      2     -10.0998      1.00000
      3      -9.9363      1.00000
      4      -9.9358      1.00000
      5      -9.9353      1.00000
      6      -9.9053      1.00000
      7      -9.9052      1.00000
      8      -9.8981      1.00000
      9      -9.8977      1.00000
     10      -9.8972      1.00000
     11      -9.8709      1.00000
     12      -9.8676      1.00000
     13      -9.8675      1.00000
     14      -9.8497      1.00000
     15      -9.8333      1.00000
     16      -9.8307      1.00000
     17      -9.8297      1.00000
     18      -9.8272      1.00000
     19      -9.8220      1.00000
     20      -9.8211      1.00000
     21      -9.8169      1.00000
     22      -9.8137      1.00000
     23      -9.8132      1.00000
     24      -9.8075      1.00000
     25      -9.8070      1.00000
     26      -9.8036      1.00000
     27      -9.7990      1.00000
     28      -9.7962      1.00000
     29      -9.7890      1.00000
     30      -9.7873      1.00000
     31      -9.7853      1.00000
     32      -9.7758      1.00000
     33      -9.7741      1.00000
     34      -9.7698      1.00000
     35      -9.7652      1.00000
     36      -9.7635      1.00000
     37      -9.7609      1.00000
     38      -9.7590      1.00000
     39      -9.7583      1.00000
     40      -9.7564      1.00000
     41      -9.7507      1.00000
     42      -9.7402      1.00000
     43      -9.7345      1.00000
     44      -9.7340      1.00000
     45      -9.7303      1.00000
     46      -9.7286      1.00000
     47      -9.7145      1.00000
     48      -9.7132      1.00000
     49      -9.7125      1.00000
     50      -9.7118      1.00000
     51      -9.7079      1.00000
     52      -9.7017      1.00000
     53      -9.7015      1.00000
     54      -9.6963      1.00000
     55      -9.6928      1.00000
     56      -9.6776      1.00000
     57      -9.6774      1.00000
     58      -9.6704      1.00000
     59      -9.6601      1.00000
     60      -9.6568      1.00000
     61      -9.6558      1.00000
     62      -9.6408      1.00000
     63      -9.6375      1.00000
     64      -9.6361      1.00000
     65      -8.4134      1.00000
     66      -8.4105      1.00000
     67      -8.4096      1.00000
     68      -8.4063      1.00000
     69      -8.3984      1.00000
     70      -8.3954      1.00000
     71      -8.3809      1.00000
     72      -8.3750      1.00000
     73      -8.3478      1.00000
     74      -8.3475      1.00000
     75      -8.3467      1.00000
     76      -8.3456      1.00000
     77      -8.3034      1.00000
     78      -8.3023      1.00000
     79      -8.3019      1.00000
     80      -8.3006      1.00000
     81      -8.2921      1.00000
     82      -8.2907      1.00000
     83      -8.2905      1.00000
     84      -8.2888      1.00000
     85      -8.2818      1.00000
     86      -8.2812      1.00000
     87      -8.2801      1.00000
     88      -8.2795      1.00000
     89      -8.2718      1.00000
     90      -8.2712      1.00000
     91      -8.2687      1.00000
     92      -8.2686      1.00000
     93      -8.2683      1.00000
     94      -8.2682      1.00000
     95      -8.2669      1.00000
     96      -8.2667      1.00000
     97      -8.2666      1.00000
     98      -8.2654      1.00000
     99      -8.2651      1.00000
    100      -8.2646      1.00000
    101      -8.2595      1.00000
    102      -8.2593      1.00000
    103      -8.2588      1.00000
    104      -8.2581      1.00000
    105      -8.2552      1.00000
    106      -8.2542      1.00000
    107      -8.2540      1.00000
    108      -8.2539      1.00000
    109      -8.2524      1.00000
    110      -8.2521      1.00000
    111      -8.2508      1.00000
    112      -8.2506      1.00000
    113      -8.2409      1.00000
    114      -8.2392      1.00000
    115      -8.2389      1.00000
    116      -8.2387      1.00000
    117      -8.2385      1.00000
    118      -8.2384      1.00000
    119      -8.2373      1.00000
    120      -8.2357      1.00000
    121      -8.2323      1.00000
    122      -8.2322      1.00000
    123      -8.2313      1.00000
    124      -8.2312      1.00000
    125      -8.2146      1.00000
    126      -8.2145      1.00000
    127      -8.2129      1.00000
    128      -8.2127      1.00000
    129      -8.2021      1.00000
    130      -8.2003      1.00000
    131      -8.1785      1.00000
    132      -8.1783      1.00000
    133      -8.1779      1.00000
    134      -8.1778      1.00000
    135      -8.1749      1.00000
    136      -8.1733      1.00000
    137      -8.1723      1.00000
    138      -8.1722      1.00000
    139      -8.1716      1.00000
    140      -8.1714      1.00000
    141      -8.1594      1.00000
    142      -8.1588      1.00000
    143      -8.1572      1.00000
    144      -8.1570      1.00000
    145      -8.1568      1.00000
    146      -8.1566      1.00000
    147      -8.1525      1.00000
    148      -8.1519      1.00000
    149      -8.1420      1.00000
    150      -8.1414      1.00000
    151      -8.1412      1.00000
    152      -8.1410      1.00000
    153      -8.1405      1.00000
    154      -8.1399      1.00000
    155      -8.1370      1.00000
    156      -8.1369      1.00000
    157      -8.1364      1.00000
    158      -8.1363      1.00000
    159      -8.1317      1.00000
    160      -8.1315      1.00000
    161      -8.0334      1.00000
    162      -8.0322      1.00000
    163      -8.0300      1.00000
    164      -8.0291      1.00000
    165      -8.0276      1.00000
    166      -8.0268      1.00000
    167      -8.0228      1.00000
    168      -8.0200      1.00000
    169      -8.0183      1.00000
    170      -8.0167      1.00000
    171      -8.0160      1.00000
    172      -8.0149      1.00000
    173      -7.9670      1.00000
    174      -7.9657      1.00000
    175      -7.9469      1.00000
    176      -7.9458      1.00000
    177      -7.9379      1.00000
    178      -7.9375      1.00000
    179      -7.9366      1.00000
    180      -7.9366      1.00000
    181      -7.9291      1.00000
    182      -7.9289      1.00000
    183      -7.9282      1.00000
    184      -7.9281      1.00000
    185      -7.9088      1.00000
    186      -7.9077      1.00000
    187      -7.8881      1.00000
    188      -7.8858      1.00000
    189      -7.8857      1.00000
    190      -7.8833      1.00000
    191      -7.8401      1.00000
    192      -7.8400      1.00000
    193      -7.8399      1.00000
    194      -7.8399      1.00000
    195      -7.8254      1.00000
    196      -7.8252      1.00000
    197      -7.7466      1.00000
    198      -7.7437      1.00000
    199      -7.7068      1.00000
    200      -7.7022      1.00000
    201      -7.6689      1.00000
    202      -7.6686      1.00000
    203      -7.6685      1.00000
    204      -7.6673      1.00000
    205      -7.6601      1.00000
    206      -7.6579      1.00000
    207      -7.6383      1.00000
    208      -7.6368      1.00000
    209      -7.6120      1.00000
    210      -7.6108      1.00000
    211      -7.6107      1.00000
    212      -7.6102      1.00000
    213      -7.6101      1.00000
    214      -7.6095      1.00000
    215      -7.6054      1.00000
    216      -7.6051      1.00000
    217      -7.6048      1.00000
    218      -7.6047      1.00000
    219      -7.6016      1.00000
    220      -7.6014      1.00000
    221      -7.6009      1.00000
    222      -7.6004      1.00000
    223      -7.5989      1.00000
    224      -7.5973      1.00000
    225      -7.5885      1.00000
    226      -7.5870      1.00000
    227      -7.5866      1.00000
    228      -7.5860      1.00000
    229      -7.5857      1.00000
    230      -7.5853      1.00000
    231      -7.5724      1.00000
    232      -7.5723      1.00000
    233      -7.5717      1.00000
    234      -7.5715      1.00000
    235      -7.5680      1.00000
    236      -7.5676      1.00000
    237      -7.5627      1.00000
    238      -7.5623      1.00000
    239      -7.5613      1.00000
    240      -7.5604      1.00000
    241      -7.5597      1.00000
    242      -7.5589      1.00000
    243      -7.5578      1.00000
    244      -7.5576      1.00000
    245      -7.5562      1.00000
    246      -7.5557      1.00000
    247      -7.5553      1.00000
    248      -7.5549      1.00000
    249      -7.5463      1.00000
    250      -7.5452      1.00000
    251      -7.5435      1.00000
    252      -7.5434      1.00000
    253      -7.5423      1.00000
    254      -7.5422      1.00000
    255      -7.5417      1.00000
    256      -7.5415      1.00000
    257      -7.5384      1.00000
    258      -7.5383      1.00000
    259      -7.5376      1.00000
    260      -7.5375      1.00000
    261      -7.5353      1.00000
    262      -7.5345      1.00000
    263      -7.5332      1.00000
    264      -7.5325      1.00000
    265      -7.5211      1.00000
    266      -7.5197      1.00000
    267      -7.5148      1.00000
    268      -7.5145      1.00000
    269      -7.5141      1.00000
    270      -7.5140      1.00000
    271      -7.5127      1.00000
    272      -7.5108      1.00000
    273      -7.5091      1.00000
    274      -7.5088      1.00000
    275      -7.5083      1.00000
    276      -7.5081      1.00000
    277      -7.5067      1.00000
    278      -7.5065      1.00000
    279      -7.4912      1.00000
    280      -7.4910      1.00000
    281      -7.4902      1.00000
    282      -7.4902      1.00000
    283      -7.4847      1.00000
    284      -7.4837      1.00000
    285      -7.4811      1.00000
    286      -7.4807      1.00000
    287      -7.4806      1.00000
    288      -7.4806      1.00000
    289      -7.4800      1.00000
    290      -7.4783      1.00000
    291      -7.4766      1.00000
    292      -7.4766      1.00000
    293      -7.4762      1.00000
    294      -7.4761      1.00000
    295      -7.4723      1.00000
    296      -7.4718      1.00000
    297      -7.4708      1.00000
    298      -7.4701      1.00000
    299      -7.4679      1.00000
    300      -7.4670      1.00000
    301      -7.4667      1.00000
    302      -7.4657      1.00000
    303      -7.4650      1.00000
    304      -7.4646      1.00000
    305      -7.4636      1.00000
    306      -7.4629      1.00000
    307      -7.4591      1.00000
    308      -7.4584      1.00000
    309      -7.4574      1.00000
    310      -7.4573      1.00000
    311      -7.4572      1.00000
    312      -7.4558      1.00000
    313      -7.4528      1.00000
    314      -7.4527      1.00000
    315      -7.4527      1.00000
    316      -7.4521      1.00000
    317      -7.4518      1.00000
    318      -7.4514      1.00000
    319      -7.4510      1.00000
    320      -7.4503      1.00000
    321      -7.4494      1.00000
    322      -7.4489      1.00000
    323      -7.4146      1.00000
    324      -7.4127      1.00000
    325      -7.4114      1.00000
    326      -7.4091      1.00000
    327      -7.4010      1.00000
    328      -7.3978      1.00000
    329      -7.3946      1.00000
    330      -7.3942      1.00000
    331      -7.3928      1.00000
    332      -7.3920      1.00000
    333      -7.3914      1.00000
    334      -7.3913      1.00000
    335      -7.3802      1.00000
    336      -7.3776      1.00000
    337      -7.3766      1.00000
    338      -7.3739      1.00000
    339      -7.2829      1.00000
    340      -7.2805      1.00000
    341      -7.2540      1.00000
    342      -7.2527      1.00000
    343      -7.2503      1.00000
    344      -7.2491      1.00000
    345      -7.2346      1.00000
    346      -7.2304      1.00000
    347      -7.2257      1.00000
    348      -7.2253      1.00000
    349      -7.2237      1.00000
    350      -7.2234      1.00000
    351      -7.1630      1.00000
    352      -7.1619      1.00000
    353      -7.1559      1.00000
    354      -7.1549      1.00000
    355      -7.1183      1.00000
    356      -7.1090      1.00000
    357      -7.1084      1.00000
    358      -7.1045      1.00000
    359      -7.0959      1.00000
    360      -7.0943      1.00000
    361      -7.0935      1.00000
    362      -7.0881      1.00000
    363      -7.0865      1.00000
    364      -7.0854      1.00000
    365      -7.0851      1.00000
    366      -7.0846      1.00000
    367      -7.0844      1.00000
    368      -7.0833      1.00000
    369      -7.0805      1.00000
    370      -7.0759      1.00000
    371      -6.9686      1.00000
    372      -6.9666      1.00000
    373      -6.9592      1.00000
    374      -6.9582      1.00000
    375      -6.9477      1.00000
    376      -6.9474      1.00000
    377      -6.9429      1.00000
    378      -6.9390      1.00000
    379      -6.9364      1.00000
    380      -6.9310      1.00000
    381      -6.9292      1.00000
    382      -6.9274      1.00000
    383      -6.8751      1.00000
    384      -6.8750      1.00000
    385      -6.8648      1.00000
    386      -6.8618      1.00000
    387      -6.8599      1.00000
    388      -6.8585      1.00000
    389      -6.7664      1.00000
    390      -6.7644      1.00000
    391      -6.7441      1.00000
    392      -6.7402      1.00000
    393      -6.7314      1.00000
    394      -6.7301      1.00000
    395      -3.3127      1.00000
    396      -3.2980      1.00000
    397      -2.8802      1.00000
    398      -2.8796      1.00000
    399      -2.8788      1.00000
    400      -2.8680      1.00000
    401      -2.8674      1.00000
    402      -2.8668      1.00000
    403      -2.7981      1.00000
    404      -2.7972      1.00000
    405      -2.7959      1.00000
    406      -2.7836      1.00000
    407      -2.7821      1.00000
    408      -2.7808      1.00000
    409      -2.7455      1.00000
    410      -2.7400      1.00000
    411      -2.7304      1.00000
    412      -2.7263      1.00000
    413      -2.7211      1.00000
    414      -2.7205      1.00000
    415      -2.4998      1.00000
    416      -2.4993      1.00000
    417      -2.4960      1.00000
    418      -2.4878      1.00000
    419      -2.4850      1.00000
    420      -2.4818      1.00000
    421      -2.4619      1.00000
    422      -2.4608      1.00000
    423      -2.2147      1.00000
    424      -2.2146      1.00000
    425      -2.2143      1.00000
    426      -2.2121      1.00000
    427      -2.2099      1.00000
    428      -2.2076      1.00000
    429      -2.1973      1.00000
    430      -2.1941      1.00000
    431      -2.1935      1.00000
    432      -2.1903      1.00000
    433      -2.1156      1.00000
    434      -2.1107      1.00000
    435      -2.0242      1.00000
    436      -2.0237      1.00000
    437      -2.0219      1.00000
    438      -2.0212      1.00000
    439      -2.0165      1.00000
    440      -2.0146      1.00000
    441      -2.0132      1.00000
    442      -2.0095      1.00000
    443      -2.0084      1.00000
    444      -2.0042      1.00000
    445      -1.2086      1.00000
    446      -1.2027      1.00000
    447      -1.0183      1.00000
    448      -1.0179      1.00000
    449      -1.0178      1.00000
    450      -1.0177      1.00000
    451      -1.0135      1.00000
    452      -1.0128      1.00000
    453      -1.0007      1.00000
    454      -1.0005      1.00000
    455      -0.9991      1.00000
    456      -0.9991      1.00000
    457      -0.9756      1.00000
    458      -0.9734      1.00000
    459      -0.9596      1.00000
    460      -0.9564      1.00000
    461      -0.9514      1.00000
    462      -0.9485      1.00000
    463      -0.8099      1.00000
    464      -0.8063      1.00000
    465      -0.6711      1.00000
    466      -0.6657      1.00000
    467      -0.6172      1.00000
    468      -0.6167      1.00000
    469      -0.6144      1.00000
    470      -0.6142      1.00000
    471      -0.5728      1.00000
    472      -0.5707      1.00000
    473      -0.5689      1.00000
    474      -0.5669      1.00000
    475      -0.5317      1.00000
    476      -0.5316      1.00000
    477      -0.5309      1.00000
    478      -0.5258      1.00000
    479      -0.5114      1.00000
    480      -0.5082      1.00000
    481      -0.5026      1.00000
    482      -0.5010      1.00000
    483      -0.4349      1.00000
    484      -0.4347      1.00000
    485      -0.4286      1.00000
    486      -0.4285      1.00000
    487      -0.4065      1.00000
    488      -0.4053      1.00000
    489      -0.4037      1.00000
    490      -0.4016      1.00000
    491      -0.3902      1.00000
    492      -0.3880      1.00000
    493      -0.3596      1.00000
    494      -0.3576      1.00000
    495      -0.3561      1.00000
    496      -0.3527      1.00000
    497      -0.3512      1.00000
    498      -0.3493      1.00000
    499      -0.3254      1.00000
    500      -0.3228      1.00000
    501      -0.3118      1.00000
    502      -0.3105      1.00000
    503      -0.3102      1.00000
    504      -0.3098      1.00000
    505      -0.3022      1.00000
    506      -0.3019      1.00000
    507      -0.2973      1.00000
    508      -0.2944      1.00000
    509      -0.2890      1.00000
    510      -0.2858      1.00000
    511      -0.0121      1.00000
    512      -0.0111      1.00000
    513      -0.0034      1.00000
    514      -0.0003      1.00000
    515       0.0349      1.00000
    516       0.0425      1.00000
    517       0.4369      1.00000
    518       0.4470      1.00000
    519       0.4774      1.00000
    520       0.4829      1.00000
    521       0.4863      1.00000
    522       0.4952      1.00000
    523       0.4978      1.00000
    524       0.5011      1.00000
    525       0.5105      1.00000
    526       0.5111      1.00000
    527       0.5198      1.00000
    528       0.5202      1.00000
    529       0.7184      1.00000
    530       0.7314      1.00000
    531       0.7358      1.00000
    532       0.7412      1.00000
    533       0.7495      1.00000
    534       0.7529      1.00000
    535       0.7560      1.00000
    536       0.7681      1.00000
    537       0.8351      1.00000
    538       0.8371      1.00000
    539       0.8462      1.00000
    540       0.8484      1.00000
    541       0.8504      1.00000
    542       0.8557      1.00000
    543       0.8626      1.00000
    544       0.8703      1.00000
    545       0.8762      1.00000
    546       0.8764      1.00000
    547       0.8988      1.00000
    548       0.9075      1.00000
    549       0.9613      1.00000
    550       0.9634      1.00000
    551       0.9666      1.00000
    552       0.9744      1.00000
    553       0.9791      1.00000
    554       0.9818      1.00000
    555       0.9830      1.00000
    556       0.9941      1.00000
    557       0.9948      1.00000
    558       0.9977      1.00000
    559       0.9981      1.00000
    560       1.0007      1.00000
    561       1.0020      1.00000
    562       1.0073      1.00000
    563       1.0075      1.00000
    564       1.0097      1.00000
    565       1.0179      1.00000
    566       1.0181      1.00000
    567       1.0202      1.00000
    568       1.0310      1.00000
    569       1.0344      1.00000
    570       1.0362      1.00000
    571       1.0535      1.00000
    572       1.0542      1.00000
    573       1.2301      1.00000
    574       1.2458      1.00000
    575       1.2488      1.00000
    576       1.2588      1.00000
    577       1.2606      1.00000
    578       1.2686      1.00000
    579       1.2765      1.00000
    580       1.2834      1.00000
    581       1.2903      1.00000
    582       1.3002      1.00000
    583       2.0625      1.00000
    584       2.0836      1.00000
    585       2.1034      1.00000
    586       2.1222      1.00000
    587       2.6252      1.00000
    588       2.6728      1.00000
    589       3.5283      0.79788
    590       3.5434      0.00000
    591       4.1267      0.00000
    592       4.1279      0.00000
    593       4.1293      0.00000
    594       4.1506      0.00000
    595       4.1519      0.00000
    596       4.1531      0.00000
    597       4.2434      0.00000
    598       4.2672      0.00000
    599       4.9506      0.00000
    600       4.9517      0.00000
    601       4.9911      0.00000
    602       4.9929      0.00000
    603       5.1106      0.00000
    604       5.1150      0.00000
    605       5.1203      0.00000
    606       5.1230      0.00000
    607       5.1656      0.00000
    608       5.2571      0.00000
    609       5.2592      0.00000
    610       5.2607      0.00000
    611       5.3320      0.00000
    612       5.3325      0.00000
    613       5.3359      0.00000
    614       5.3473      0.00000
    615       5.3690      0.00000
    616       5.3723      0.00000
    617       5.4106      0.00000
    618       5.4516      0.00000
    619       5.4793      0.00000
    620       5.5075      0.00000
    621       5.5131      0.00000
    622       5.5131      0.00000
    623       5.5165      0.00000
    624       5.5166      0.00000
    625       5.5177      0.00000
    626       5.5319      0.00000
    627       5.5415      0.00000
    628       5.5501      0.00000
    629       5.5520      0.00000
    630       5.5583      0.00000
    631       5.5661      0.00000
    632       5.5754      0.00000
    633       5.5760      0.00000
    634       5.5878      0.00000
    635       5.5932      0.00000
    636       5.6020      0.00000
    637       5.6365      0.00000
    638       5.6431      0.00000
    639       5.6466      0.00000
    640       5.6493      0.00000
    641       5.6519      0.00000
    642       5.6536      0.00000
    643       5.6615      0.00000
    644       5.6941      0.00000
    645       5.6950      0.00000
    646       5.6971      0.00000
    647       5.6994      0.00000
    648       5.7001      0.00000
    649       5.7090      0.00000
    650       5.7240      0.00000
    651       5.7271      0.00000
    652       5.7275      0.00000
    653       5.7288      0.00000
    654       5.7293      0.00000
    655       5.7461      0.00000
    656       5.7463      0.00000
    657       6.4188      0.00000
[...]
 l=   3
     0.0000000     0.0000000     0.0000000     0.0000000     0.0000000     0.0000000     0.0000000
     0.0000000     0.0000000     0.0000000     0.0000000     0.0000000     0.0000000     0.0000000
     0.0000000     0.0000000     0.0000000     0.0000000     0.0000000     0.0000000     0.0000000
     0.0000000     0.0000000     0.0000000     0.0000000     0.0000000     0.0000000     0.0000000
     0.0000000     0.0000000     0.0000000     0.0000000     0.0000000     0.0000000     0.0000000
     0.0000000     0.0000000     0.0000000     0.0000000     0.0000000     0.0000000     0.0000000
     0.0000000     0.0000000     0.0000000     0.0000000     0.0000000     0.0000000     0.0000000

 Ion:   61  E_soc:     -0.1862284
 l=   1
     0.0000000    -0.0309606    -0.0309942
    -0.0309606     0.0000000    -0.0309669
    -0.0309942    -0.0309669     0.0000000
 l=   2
    -0.0000000    -0.0000294     0.0000000    -0.0000289    -0.0000367
    -0.0000294    -0.0000000    -0.0000257    -0.0000297    -0.0000084
     0.0000000    -0.0000257     0.0000000    -0.0000254     0.0000000
    -0.0000289    -0.0000297    -0.0000254    -0.0000000    -0.0000082
    -0.0000367    -0.0000084     0.0000000    -0.0000082    -0.0000000
 l=   3
     0.0000000     0.0000000     0.0000000     0.0000000     0.0000000     0.0000000     0.0000000
     0.0000000     0.0000000     0.0000000     0.0000000     0.0000000     0.0000000     0.0000000
     0.0000000     0.0000000     0.0000000     0.0000000     0.0000000     0.0000000     0.0000000
     0.0000000     0.0000000     0.0000000     0.0000000     0.0000000     0.0000000     0.0000000
     0.0000000     0.0000000     0.0000000     0.0000000     0.0000000     0.0000000     0.0000000
     0.0000000     0.0000000     0.0000000     0.0000000     0.0000000     0.0000000     0.0000000
     0.0000000     0.0000000     0.0000000     0.0000000     0.0000000     0.0000000     0.0000000

 Ion:   62  E_soc:     -0.1861288
 l=   1
     0.0000000    -0.0309949    -0.0309205
    -0.0309949     0.0000000    -0.0309574
    -0.0309205    -0.0309574     0.0000000
 l=   2
    -0.0000000    -0.0000294     0.0000000    -0.0000295    -0.0000340
    -0.0000294    -0.0000000    -0.0000269    -0.0000288    -0.0000094
     0.0000000    -0.0000269     0.0000000    -0.0000251     0.0000000
    -0.0000295    -0.0000288    -0.0000251    -0.0000000    -0.0000084
    -0.0000340    -0.0000094     0.0000000    -0.0000084    -0.0000000
 l=   3
     0.0000000     0.0000000     0.0000000     0.0000000     0.0000000     0.0000000     0.0000000
     0.0000000     0.0000000     0.0000000     0.0000000     0.0000000     0.0000000     0.0000000
     0.0000000     0.0000000     0.0000000     0.0000000     0.0000000     0.0000000     0.0000000
     0.0000000     0.0000000     0.0000000     0.0000000     0.0000000     0.0000000     0.0000000
     0.0000000     0.0000000     0.0000000     0.0000000     0.0000000     0.0000000     0.0000000
     0.0000000     0.0000000     0.0000000     0.0000000     0.0000000     0.0000000     0.0000000
     0.0000000     0.0000000     0.0000000     0.0000000     0.0000000     0.0000000     0.0000000

 Ion:   63  E_soc:     -0.1891196
 l=   1
     0.0000000    -0.0315194    -0.0315333
    -0.0315194     0.0000000    -0.0313408
    -0.0315333    -0.0313408     0.0000000
 l=   2
    -0.0000000    -0.0000263     0.0000000    -0.0000262    -0.0000293
    -0.0000263    -0.0000000    -0.0000220    -0.0000262    -0.0000070
     0.0000000    -0.0000220     0.0000000    -0.0000220     0.0000000
    -0.0000262    -0.0000262    -0.0000220    -0.0000000    -0.0000073
    -0.0000293    -0.0000070     0.0000000    -0.0000073     0.0000000
 l=   3
     0.0000000     0.0000000     0.0000000     0.0000000     0.0000000     0.0000000     0.0000000
     0.0000000     0.0000000     0.0000000     0.0000000     0.0000000     0.0000000     0.0000000
     0.0000000     0.0000000     0.0000000     0.0000000     0.0000000     0.0000000     0.0000000
     0.0000000     0.0000000     0.0000000     0.0000000     0.0000000     0.0000000     0.0000000
     0.0000000     0.0000000     0.0000000     0.0000000     0.0000000     0.0000000     0.0000000
     0.0000000     0.0000000     0.0000000     0.0000000     0.0000000     0.0000000     0.0000000
     0.0000000     0.0000000     0.0000000     0.0000000     0.0000000     0.0000000     0.0000000

 Ion:   64  E_soc:     -0.1862307
 l=   1
     0.0000000    -0.0310245    -0.0309527
    -0.0310245     0.0000000    -0.0309460
    -0.0309527    -0.0309460     0.0000000
 l=   2
    -0.0000000    -0.0000291     0.0000000    -0.0000296    -0.0000343
    -0.0000291    -0.0000000    -0.0000270    -0.0000287    -0.0000098
     0.0000000    -0.0000270     0.0000000    -0.0000252     0.0000000
    -0.0000296    -0.0000287    -0.0000252    -0.0000000    -0.0000085
    -0.0000343    -0.0000098     0.0000000    -0.0000085    -0.0000000
 l=   3
     0.0000000     0.0000000     0.0000000     0.0000000     0.0000000     0.0000000     0.0000000
     0.0000000     0.0000000     0.0000000     0.0000000     0.0000000     0.0000000     0.0000000
     0.0000000     0.0000000     0.0000000     0.0000000     0.0000000     0.0000000     0.0000000
     0.0000000     0.0000000     0.0000000     0.0000000     0.0000000     0.0000000     0.0000000
     0.0000000     0.0000000     0.0000000     0.0000000     0.0000000     0.0000000     0.0000000
     0.0000000     0.0000000     0.0000000     0.0000000     0.0000000     0.0000000     0.0000000
     0.0000000     0.0000000     0.0000000     0.0000000     0.0000000     0.0000000     0.0000000

 Ion:   65  E_soc:     -0.1890679
 l=   1
     0.0000000    -0.0315174    -0.0315093
    -0.0315174     0.0000000    -0.0313397
    -0.0315093    -0.0313397     0.0000000
 l=   2
    -0.0000000    -0.0000266     0.0000000    -0.0000263    -0.0000297
    -0.0000266    -0.0000000    -0.0000225    -0.0000262    -0.0000072
     0.0000000    -0.0000225     0.0000000    -0.0000219     0.0000000
    -0.0000263    -0.0000262    -0.0000219    -0.0000000    -0.0000073
    -0.0000297    -0.0000072     0.0000000    -0.0000073     0.0000000
 l=   3
     0.0000000     0.0000000     0.0000000     0.0000000     0.0000000     0.0000000     0.0000000
     0.0000000     0.0000000     0.0000000     0.0000000     0.0000000     0.0000000     0.0000000
     0.0000000     0.0000000     0.0000000     0.0000000     0.0000000     0.0000000     0.0000000
     0.0000000     0.0000000     0.0000000     0.0000000     0.0000000     0.0000000     0.0000000
     0.0000000     0.0000000     0.0000000     0.0000000     0.0000000     0.0000000     0.0000000
     0.0000000     0.0000000     0.0000000     0.0000000     0.0000000     0.0000000     0.0000000
     0.0000000     0.0000000     0.0000000     0.0000000     0.0000000     0.0000000     0.0000000



 total charge

# of ion       s       p       d       tot
------------------------------------------
    1        0.402   0.281   9.585  10.268
    2        0.413   0.294   9.584  10.291
    3        0.413   0.294   9.584  10.291
    4        0.412   0.295   9.584  10.291
    5        0.413   0.294   9.584  10.291
    6        0.412   0.295   9.584  10.291
    7        0.412   0.295   9.584  10.291
    8        0.410   0.292   9.584  10.286
    9        0.413   0.294   9.583  10.291
   10        0.402   0.281   9.585  10.268
   11        0.412   0.295   9.584  10.291
   12        0.413   0.294   9.584  10.291
   13        0.412   0.295   9.584  10.291
   14        0.413   0.294   9.583  10.291
   15        0.410   0.292   9.584  10.286
   16        0.412   0.295   9.584  10.291
   17        0.412   0.295   9.584  10.291
   18        0.413   0.294   9.584  10.291
   19        0.410   0.292   9.584  10.286
   20        0.412   0.295   9.584  10.291
   21        0.413   0.294   9.584  10.291
   22        0.402   0.281   9.585  10.268
   23        0.412   0.295   9.584  10.291
   24        0.413   0.294   9.584  10.291
   25        0.413   0.294   9.583  10.291
   26        0.412   0.295   9.584  10.291
   27        0.412   0.295   9.584  10.291
   28        0.410   0.292   9.584  10.287
   29        0.402   0.281   9.585  10.268
   30        0.413   0.294   9.584  10.291
   31        0.413   0.294   9.584  10.291
   32        0.412   0.295   9.584  10.291
   33        0.716   0.154   9.549  10.419
   34        1.283   2.229   0.017   3.529
   35        1.294   2.203   0.017   3.513
   36        1.283   2.227   0.016   3.526
   37        1.283   2.229   0.017   3.529
   38        1.283   2.229   0.017   3.529
   39        1.294   2.203   0.017   3.513
   40        1.283   2.227   0.016   3.526
   41        1.283   2.229   0.017   3.529
   42        1.283   2.225   0.016   3.523
   43        1.284   2.226   0.016   3.526
   44        1.284   2.227   0.016   3.527
   45        1.283   2.225   0.016   3.523
   46        1.284   2.227   0.016   3.527
   47        1.283   2.225   0.016   3.524
   48        1.283   2.225   0.016   3.523
   49        1.283   2.227   0.016   3.526
   50        1.283   2.229   0.017   3.529
   51        1.283   2.229   0.017   3.529
   52        1.283   2.227   0.016   3.526
   53        1.283   2.227   0.016   3.526
   54        1.294   2.203   0.017   3.513
   55        1.294   2.203   0.017   3.513
   56        1.283   2.229   0.017   3.529
   57        1.283   2.229   0.017   3.529
   58        1.283   2.227   0.016   3.526
   59        1.283   2.229   0.017   3.529
   60        1.283   2.227   0.016   3.526
   61        1.283   2.229   0.017   3.529
   62        1.283   2.229   0.017   3.529
   63        1.294   2.202   0.017   3.513
   64        1.283   2.229   0.017   3.529
   65        1.294   2.203   0.017   3.513
--------------------------------------------------
tot         54.987  80.646 316.759 452.392



 magnetization (x)

# of ion       s       p       d       tot
------------------------------------------
    1       -0.005  -0.004   0.003  -0.006
    2       -0.005  -0.003   0.002  -0.006
    3       -0.005  -0.003   0.002  -0.006
    4       -0.004  -0.003   0.002  -0.006
    5       -0.005  -0.003   0.002  -0.006
    6       -0.004  -0.003   0.002  -0.006
    7       -0.004  -0.003   0.002  -0.006
    8       -0.005  -0.003   0.002  -0.006
    9       -0.005  -0.003   0.002  -0.006
   10       -0.005  -0.004   0.003  -0.006
   11       -0.004  -0.003   0.002  -0.006
   12       -0.005  -0.003   0.002  -0.006
   13       -0.004  -0.003   0.002  -0.006
   14       -0.005  -0.003   0.002  -0.006
   15       -0.005  -0.003   0.002  -0.006
   16       -0.004  -0.003   0.002  -0.006
   17       -0.004  -0.003   0.002  -0.006
   18       -0.005  -0.003   0.002  -0.006
   19       -0.005  -0.003   0.002  -0.006
   20       -0.004  -0.003   0.002  -0.006
   21       -0.005  -0.003   0.002  -0.006
   22       -0.005  -0.004   0.002  -0.006
   23       -0.004  -0.003   0.002  -0.006
   24       -0.005  -0.003   0.002  -0.006
   25       -0.005  -0.003   0.002  -0.006
   26       -0.004  -0.003   0.002  -0.006
   27       -0.004  -0.003   0.002  -0.006
   28       -0.005  -0.003   0.002  -0.006
   29       -0.005  -0.004   0.003  -0.006
   30       -0.005  -0.003   0.002  -0.006
   31       -0.005  -0.003   0.002  -0.006
   32       -0.004  -0.003   0.002  -0.006
   33        0.026  -0.003   0.001   0.024
   34        0.008   0.022  -0.000   0.030
   35        0.008   0.026  -0.000   0.033
   36        0.008   0.022  -0.000   0.029
   37        0.008   0.022  -0.000   0.029
   38        0.008   0.022  -0.000   0.029
   39        0.008   0.026  -0.000   0.033
   40        0.008   0.022  -0.000   0.029
   41        0.008   0.022  -0.000   0.029
   42        0.008   0.022  -0.000   0.030
   43        0.008   0.022  -0.000   0.030
   44        0.008   0.022  -0.000   0.030
   45        0.008   0.022  -0.000   0.030
   46        0.008   0.022  -0.000   0.030
   47        0.008   0.022  -0.000   0.029
   48        0.008   0.022  -0.000   0.029
   49        0.008   0.022  -0.000   0.030
   50        0.008   0.022  -0.000   0.029
   51        0.008   0.022  -0.000   0.030
   52        0.008   0.022  -0.000   0.029
   53        0.008   0.022  -0.000   0.029
   54        0.008   0.026  -0.000   0.033
   55        0.008   0.026  -0.000   0.033
   56        0.008   0.022  -0.000   0.030
   57        0.008   0.022  -0.000   0.029
   58        0.008   0.022  -0.000   0.029
   59        0.008   0.022  -0.000   0.029
   60        0.008   0.022  -0.000   0.029
   61        0.008   0.022  -0.000   0.030
   62        0.008   0.022  -0.000   0.030
   63        0.008   0.026  -0.000   0.033
   64        0.008   0.022  -0.000   0.029
   65        0.008   0.026  -0.000   0.033
--------------------------------------------------
tot          0.127   0.622   0.059   0.808



 magnetization (y)

# of ion       s       p       d       tot
------------------------------------------
    1       -0.005  -0.004   0.003  -0.006
    2       -0.005  -0.003   0.002  -0.006
    3       -0.005  -0.003   0.002  -0.006
    4       -0.004  -0.003   0.002  -0.006
    5       -0.005  -0.003   0.002  -0.006
    6       -0.004  -0.003   0.002  -0.006
    7       -0.004  -0.003   0.002  -0.006
    8       -0.005  -0.003   0.002  -0.006
    9       -0.005  -0.003   0.002  -0.006
   10       -0.005  -0.004   0.003  -0.006
   11       -0.004  -0.003   0.002  -0.006
   12       -0.005  -0.003   0.002  -0.006
   13       -0.004  -0.003   0.002  -0.006
   14       -0.005  -0.003   0.002  -0.006
   15       -0.005  -0.003   0.002  -0.006
   16       -0.004  -0.003   0.002  -0.006
   17       -0.004  -0.003   0.002  -0.006
   18       -0.005  -0.003   0.002  -0.006
   19       -0.005  -0.003   0.002  -0.006
   20       -0.004  -0.003   0.002  -0.006
   21       -0.005  -0.003   0.002  -0.006
   22       -0.005  -0.004   0.002  -0.006
   23       -0.004  -0.003   0.002  -0.006
   24       -0.005  -0.003   0.002  -0.006
   25       -0.005  -0.003   0.002  -0.006
   26       -0.004  -0.003   0.002  -0.006
   27       -0.004  -0.003   0.002  -0.006
   28       -0.005  -0.003   0.002  -0.006
   29       -0.005  -0.004   0.003  -0.006
   30       -0.005  -0.003   0.002  -0.006
   31       -0.005  -0.003   0.002  -0.006
   32       -0.004  -0.003   0.002  -0.006
   33        0.026  -0.003   0.001   0.024
   34        0.008   0.022  -0.000   0.030
   35        0.008   0.026  -0.000   0.034
   36        0.008   0.022  -0.000   0.029
   37        0.008   0.022  -0.000   0.029
   38        0.008   0.022  -0.000   0.029
   39        0.008   0.026  -0.000   0.033
   40        0.008   0.022  -0.000   0.029
   41        0.008   0.022  -0.000   0.030
   42        0.008   0.022  -0.000   0.029
   43        0.008   0.022  -0.000   0.030
   44        0.008   0.022  -0.000   0.030
   45        0.008   0.022  -0.000   0.029
   46        0.008   0.022  -0.000   0.030
   47        0.008   0.022  -0.000   0.029
   48        0.008   0.022  -0.000   0.029
   49        0.008   0.022  -0.000   0.030
   50        0.008   0.022  -0.000   0.030
   51        0.008   0.022  -0.000   0.030
   52        0.008   0.022  -0.000   0.029
   53        0.008   0.022  -0.000   0.029
   54        0.008   0.026  -0.000   0.033
   55        0.008   0.026  -0.000   0.034
   56        0.008   0.022  -0.000   0.029
   57        0.008   0.022  -0.000   0.029
   58        0.008   0.022  -0.000   0.029
   59        0.008   0.022  -0.000   0.029
   60        0.008   0.022  -0.000   0.029
   61        0.008   0.022  -0.000   0.029
   62        0.008   0.022  -0.000   0.029
   63        0.008   0.026  -0.000   0.033
   64        0.008   0.022  -0.000   0.029
   65        0.008   0.026  -0.000   0.033
--------------------------------------------------
tot          0.127   0.623   0.059   0.809



 magnetization (z)

# of ion       s       p       d       tot
------------------------------------------
    1       -0.005  -0.004   0.003  -0.006
    2       -0.005  -0.003   0.002  -0.006
    3       -0.005  -0.003   0.002  -0.006
    4       -0.004  -0.003   0.002  -0.006
    5       -0.005  -0.003   0.002  -0.006
    6       -0.004  -0.003   0.002  -0.006
    7       -0.004  -0.003   0.002  -0.006
    8       -0.005  -0.003   0.002  -0.006
    9       -0.005  -0.003   0.002  -0.006
   10       -0.005  -0.004   0.003  -0.006
   11       -0.004  -0.003   0.002  -0.006
   12       -0.005  -0.003   0.002  -0.006
   13       -0.004  -0.003   0.002  -0.006
   14       -0.005  -0.003   0.002  -0.006
   15       -0.005  -0.003   0.002  -0.006
   16       -0.004  -0.003   0.002  -0.006
   17       -0.004  -0.003   0.002  -0.006
   18       -0.005  -0.003   0.002  -0.006
   19       -0.005  -0.003   0.002  -0.006
   20       -0.004  -0.003   0.002  -0.006
   21       -0.005  -0.003   0.002  -0.006
   22       -0.005  -0.004   0.002  -0.006
   23       -0.004  -0.003   0.002  -0.006
   24       -0.005  -0.003   0.002  -0.006
   25       -0.005  -0.003   0.002  -0.006
   26       -0.004  -0.003   0.002  -0.006
   27       -0.004  -0.003   0.002  -0.006
   28       -0.005  -0.003   0.002  -0.006
   29       -0.005  -0.004   0.003  -0.006
   30       -0.005  -0.003   0.002  -0.006
   31       -0.005  -0.003   0.002  -0.006
   32       -0.004  -0.003   0.002  -0.006
   33        0.026  -0.003   0.001   0.024
   34        0.008   0.022  -0.000   0.030
   35        0.008   0.026  -0.000   0.033
   36        0.008   0.022  -0.000   0.029
   37        0.008   0.022  -0.000   0.030
   38        0.008   0.022  -0.000   0.030
   39        0.008   0.026  -0.000   0.033
   40        0.008   0.022  -0.000   0.029
   41        0.008   0.022  -0.000   0.029
   42        0.008   0.022  -0.000   0.029
   43        0.008   0.022  -0.000   0.030
   44        0.008   0.022  -0.000   0.030
   45        0.008   0.022  -0.000   0.030
   46        0.008   0.022  -0.000   0.030
   47        0.008   0.022  -0.000   0.029
   48        0.008   0.022  -0.000   0.029
   49        0.008   0.022  -0.000   0.030
   50        0.008   0.022  -0.000   0.030
   51        0.008   0.022  -0.000   0.030
   52        0.008   0.022  -0.000   0.029
   53        0.008   0.022  -0.000   0.029
   54        0.008   0.026  -0.000   0.033
   55        0.008   0.026  -0.000   0.033
   56        0.008   0.022  -0.000   0.029
   57        0.008   0.022  -0.000   0.029
   58        0.008   0.022  -0.000   0.029
   59        0.008   0.022  -0.000   0.030
   60        0.008   0.022  -0.000   0.029
   61        0.008   0.022  -0.000   0.030
   62        0.008   0.022  -0.000   0.029
   63        0.008   0.026  -0.000   0.033
   64        0.008   0.022  -0.000   0.030
   65        0.008   0.026  -0.000   0.033
--------------------------------------------------
tot          0.127   0.622   0.059   0.808


 total amount of memory used by VASP MPI-rank0   814168. kBytes
=======================================================================

   base      :      30000. kBytes
   nonl-proj :      40770. kBytes
   fftplans  :      41333. kBytes
   grid      :      54853. kBytes
   one-center:       1057. kBytes
   HF        :        129. kBytes
   nonlr-proj:      12683. kBytes
   wavefun   :     469044. kBytes
   fock_wrk  :     164299. kBytes

  
  
 General timing and accounting informations for this job:
 ========================================================
  
                  Total CPU time used (sec):    19258.984
                            User time (sec):    19127.906
                          System time (sec):      131.078
                         Elapsed time (sec):    19273.376
  
                   Maximum memory used (kb):     1403260.
                   Average memory used (kb):          N/A
  
                          Minor page faults:       636475
                          Major page faults:           23
                 Voluntary context switches:        18110
